<VTKFile type="UnstructuredGrid" byte_order="BigEndian">
<UnstructuredGrid><Piece NumberOfPoints="660" NumberOfCells="608">
<Points>
 <DataArray type="Float32" NumberOfComponents="3" format="ascii">
 -7.533985190093517303e-03 5.623140837997198105e-03 0.000000000000000000e+00
 -7.525563240051269531e-03 5.611246917396783829e-03 0.000000000000000000e+00
 -7.516055833548307419e-03 5.597821436822414398e-03 0.000000000000000000e+00
 -7.505368441343307495e-03 5.582728888839483261e-03 0.000000000000000000e+00
 -7.493410259485244751e-03 5.565841216593980789e-03 0.000000000000000000e+00
 -7.480098400264978409e-03 5.547042936086654663e-03 0.000000000000000000e+00
 -7.465365808457136154e-03 5.526238121092319489e-03 0.000000000000000000e+00
 -7.449164520949125290e-03 5.503359250724315643e-03 0.000000000000000000e+00
 -7.431473117321729660e-03 5.478375591337680817e-03 0.000000000000000000e+00
 -7.412301842123270035e-03 5.451302975416183472e-03 0.000000000000000000e+00
 -7.391699124127626419e-03 5.422208458185195923e-03 0.000000000000000000e+00
 -7.369754835963249207e-03 5.391219165176153183e-03 0.000000000000000000e+00
 -7.346603088080883026e-03 5.358525086194276810e-03 0.000000000000000000e+00
 -7.322420366108417511e-03 5.324375350028276443e-03 0.000000000000000000e+00
 -7.297424599528312683e-03 5.289076827466487885e-03 0.000000000000000000e+00
 -7.271866779774427414e-03 5.252984352409839630e-03 0.000000000000000000e+00
 -7.246020715683698654e-03 5.216485820710659027e-03 0.000000000000000000e+00
 -7.220175117254257202e-03 5.179987289011478424e-03 0.000000000000000000e+00
 -7.194617297500371933e-03 5.143894813954830170e-03 0.000000000000000000e+00
 -7.169621530920267105e-03 5.108596757054328918e-03 0.000000000000000000e+00
 -7.145438808947801590e-03 5.074447020888328552e-03 0.000000000000000000e+00
 -7.122287061065435410e-03 5.041752476245164871e-03 0.000000000000000000e+00
 -7.100342772901058197e-03 5.010763648897409439e-03 0.000000000000000000e+00
 -7.079740054905414581e-03 4.981669131666421890e-03 0.000000000000000000e+00
 -7.060568779706954956e-03 4.954596515744924545e-03 0.000000000000000000e+00
 -7.042877376079559326e-03 4.929612856358289719e-03 0.000000000000000000e+00
 -7.026676088571548462e-03 4.906733985990285873e-03 0.000000000000000000e+00
 -7.011943496763706207e-03 4.885929170995950699e-03 0.000000000000000000e+00
 -6.998631637543439865e-03 4.867130424827337265e-03 0.000000000000000000e+00
 -6.986673455685377121e-03 4.850243218243122101e-03 0.000000000000000000e+00
 -6.975986063480377197e-03 4.835150670260190964e-03 0.000000000000000000e+00
 -6.966478656977415085e-03 4.821725189685821533e-03 0.000000000000000000e+00
 -6.958056706935167313e-03 4.809831269085407257e-03 0.000000000000000000e+00
 -7.489980664104223251e-03 5.726385395973920822e-03 0.000000000000000000e+00
 -7.481566630303859711e-03 5.714205559343099594e-03 0.000000000000000000e+00
 -7.472069002687931061e-03 5.700456909835338593e-03 0.000000000000000000e+00
 -7.461392320692539215e-03 5.685001146048307419e-03 0.000000000000000000e+00
 -7.449445780366659164e-03 5.667707417160272598e-03 0.000000000000000000e+00
 -7.436146959662437439e-03 5.648456513881683350e-03 0.000000000000000000e+00
 -7.421429269015789032e-03 5.627150647342205048e-03 0.000000000000000000e+00
 -7.405244279652833939e-03 5.603721365332603455e-03 0.000000000000000000e+00
 -7.387570105493068695e-03 5.578136537224054337e-03 0.000000000000000000e+00
 -7.368417922407388687e-03 5.550411995500326157e-03 0.000000000000000000e+00
 -7.347835693508386612e-03 5.520617589354515076e-03 0.000000000000000000e+00
 -7.325913291424512863e-03 5.488882772624492645e-03 0.000000000000000000e+00
 -7.302784360945224762e-03 5.455401726067066193e-03 0.000000000000000000e+00
 -7.278625853359699249e-03 5.420430097728967667e-03 0.000000000000000000e+00
 -7.253655232489109039e-03 5.384282208979129791e-03 0.000000000000000000e+00
 -7.228122558444738388e-03 5.347321275621652603e-03 0.000000000000000000e+00
 -7.202302571386098862e-03 5.309944506734609604e-03 0.000000000000000000e+00
 -7.176482584327459335e-03 5.272567737847566605e-03 0.000000000000000000e+00
 -7.150949444621801376e-03 5.235606338828802109e-03 0.000000000000000000e+00
 -7.125978823751211166e-03 5.199458915740251541e-03 0.000000000000000000e+00
 -7.101820316165685654e-03 5.164487287402153015e-03 0.000000000000000000e+00
 -7.078691385686397552e-03 5.131006240844726562e-03 0.000000000000000000e+00
 -7.056768983602523804e-03 5.099271424114704132e-03 0.000000000000000000e+00
 -7.036186754703521729e-03 5.069476552307605743e-03 0.000000000000000000e+00
 -7.017034571617841721e-03 5.041752010583877563e-03 0.000000000000000000e+00
 -6.999360863119363785e-03 5.016167648136615753e-03 0.000000000000000000e+00
 -6.983175873756408691e-03 4.992737900465726852e-03 0.000000000000000000e+00
 -6.968457717448472977e-03 4.971432499587535858e-03 0.000000000000000000e+00
 -6.955159362405538559e-03 4.952181596308946609e-03 0.000000000000000000e+00
 -6.943212356418371201e-03 4.934887401759624481e-03 0.000000000000000000e+00
 -6.932535674422979355e-03 4.919432103633880615e-03 0.000000000000000000e+00
 -6.923038046807050705e-03 4.905683454126119614e-03 0.000000000000000000e+00
 -6.914624013006687164e-03 4.893503617495298386e-03 0.000000000000000000e+00
 -7.445232477039098740e-03 5.829539149999618530e-03 0.000000000000000000e+00
 -7.436826825141906738e-03 5.817071069031953812e-03 0.000000000000000000e+00
 -7.427338045090436935e-03 5.802996456623077393e-03 0.000000000000000000e+00
 -7.416671607643365860e-03 5.787174683064222336e-03 0.000000000000000000e+00
 -7.404736243188381195e-03 5.769470706582069397e-03 0.000000000000000000e+00
 -7.391450461000204086e-03 5.749763455241918564e-03 0.000000000000000000e+00
 -7.376746274530887604e-03 5.727952811866998672e-03 0.000000000000000000e+00
 -7.360576651990413666e-03 5.703968461602926254e-03 0.000000000000000000e+00
 -7.342919707298278809e-03 5.677777342498302460e-03 0.000000000000000000e+00
 -7.323785685002803802e-03 5.649395752698183060e-03 0.000000000000000000e+00
 -7.303223479539155960e-03 5.618895404040813446e-03 0.000000000000000000e+00
 -7.281322032213211060e-03 5.586408544331789017e-03 0.000000000000000000e+00
 -7.258214987814426422e-03 5.552133545279502869e-03 0.000000000000000000e+00
 -7.234079763293266296e-03 5.516333505511283875e-03 0.000000000000000000e+00
 -7.209132425487041473e-03 5.479329265654087067e-03 0.000000000000000000e+00
 -7.183624431490898132e-03 5.441492423415184021e-03 0.000000000000000000e+00
 -7.157828658819198608e-03 5.403229501098394394e-03 0.000000000000000000e+00
 -7.132033351808786392e-03 5.364967044442892075e-03 0.000000000000000000e+00
 -7.106524892151355743e-03 5.327130202203989029e-03 0.000000000000000000e+00
 -7.081578020006418228e-03 5.290125962346792221e-03 0.000000000000000000e+00
 -7.057442795485258102e-03 5.254325456917285919e-03 0.000000000000000000e+00
 -7.034335751086473465e-03 5.220050923526287079e-03 0.000000000000000000e+00
 -7.012434303760528564e-03 5.187564063817262650e-03 0.000000000000000000e+00
 -6.991871632635593414e-03 5.157063249498605728e-03 0.000000000000000000e+00
 -6.972738076001405716e-03 5.128681659698486328e-03 0.000000000000000000e+00
 -6.955080665647983551e-03 5.102491006255149841e-03 0.000000000000000000e+00
 -6.938911043107509613e-03 5.078506190329790115e-03 0.000000000000000000e+00
 -6.924207322299480438e-03 5.056695546954870224e-03 0.000000000000000000e+00
 -6.910921540111303329e-03 5.036988761276006699e-03 0.000000000000000000e+00
 -6.898986175656318665e-03 5.019284784793853760e-03 0.000000000000000000e+00
 -6.888319738209247589e-03 5.003463011234998703e-03 0.000000000000000000e+00
 -6.878830958157777786e-03 4.989388398826122284e-03 0.000000000000000000e+00
 -6.870425306260585785e-03 4.976919852197170258e-03 0.000000000000000000e+00
 -7.399742025882005692e-03 5.932593718171119690e-03 0.000000000000000000e+00
 -7.391343824565410614e-03 5.919834133237600327e-03 0.000000000000000000e+00
 -7.381863892078399658e-03 5.905431229621171951e-03 0.000000000000000000e+00
 -7.371207233518362045e-03 5.889239721000194550e-03 0.000000000000000000e+00
 -7.359283044934272766e-03 5.871122702956199646e-03 0.000000000000000000e+00
 -7.346009369939565659e-03 5.850955843925476074e-03 0.000000000000000000e+00
 -7.331318687647581100e-03 5.828636232763528824e-03 0.000000000000000000e+00
 -7.315163966268301010e-03 5.804091691970825195e-03 0.000000000000000000e+00
 -7.297522854059934616e-03 5.777289625257253647e-03 0.000000000000000000e+00
 -7.278406526893377304e-03 5.748245865106582642e-03 0.000000000000000000e+00
 -7.257862947881221771e-03 5.717033054679632187e-03 0.000000000000000000e+00
 -7.235981523990631104e-03 5.683788098394870758e-03 0.000000000000000000e+00
 -7.212895900011062622e-03 5.648713558912277222e-03 0.000000000000000000e+00
 -7.188782561570405960e-03 5.612077657133340836e-03 0.000000000000000000e+00
 -7.163858506828546524e-03 5.574209615588188171e-03 0.000000000000000000e+00
 -7.138373795896768570e-03 5.535489413887262344e-03 0.000000000000000000e+00
 -7.112601771950721741e-03 5.496333818882703781e-03 0.000000000000000000e+00
 -7.086830213665962219e-03 5.457178223878145218e-03 0.000000000000000000e+00
 -7.061345037072896957e-03 5.418458022177219391e-03 0.000000000000000000e+00
 -7.036420982331037521e-03 5.380590446293354034e-03 0.000000000000000000e+00
 -7.012307643890380859e-03 5.343954544514417648e-03 0.000000000000000000e+00
 -6.989222019910812378e-03 5.308879539370536804e-03 0.000000000000000000e+00
 -6.967340596020221710e-03 5.275634583085775375e-03 0.000000000000000000e+00
 -6.946797017008066177e-03 5.244422238320112228e-03 0.000000000000000000e+00
 -6.927680689841508865e-03 5.215378012508153915e-03 0.000000000000000000e+00
 -6.910040043294429779e-03 5.188575945794582367e-03 0.000000000000000000e+00
 -6.893885321915149689e-03 5.164031405001878738e-03 0.000000000000000000e+00
 -6.879194639623165131e-03 5.141711793839931488e-03 0.000000000000000000e+00
[...]
<CellData>
 <DataArray Name="pos.x" type="Float32" NumberOfComponents="1" format="ascii">
 -7.507744501212727795e-03
 -7.498784590908162337e-03
 -7.488692742511863544e-03
 -7.477375812244717312e-03
 -7.464747446695059289e-03
 -7.450732867449877395e-03
 -7.435274359331393162e-03
 -7.418337242891023808e-03
 -7.399915976536349145e-03
 -7.380039896128683975e-03
 -7.358777985092807179e-03
 -7.336242007596156106e-03
 -7.312587363331868665e-03
 -7.288011158244439743e-03
 -7.262747235714692509e-03
 -7.237058254771128012e-03
 -7.211225285169894569e-03
 -7.185535742938487479e-03
 -7.160270740399813337e-03
 -7.135693015629778965e-03
 -7.112036516718898103e-03
 -7.089498466718070942e-03
 -7.068234381649842434e-03
 -7.048356130296537861e-03
 -7.029932781566135616e-03
 -7.012993734138709377e-03
 -6.997533486467252990e-03
 -6.983517378785186226e-03
 -6.970887699106634826e-03
 -6.959569660093845554e-03
 -6.949476891481561752e-03
 -6.940516228262310836e-03
 -7.463371168506149900e-03
 -7.454419981118008340e-03
 -7.444337957332424795e-03
 -7.433032043981465178e-03
 -7.420415971666501249e-03
 -7.406415034733482977e-03
 -7.390971574192549062e-03
 -7.374050944406550408e-03
 -7.355647609292809662e-03
 -7.335790876351233787e-03
 -7.314549662130132891e-03
 -7.292035622348533482e-03
 -7.268404005824522299e-03
 -7.243851727043627495e-03
 -7.218612402129139134e-03
 -7.192948434712731313e-03
 -7.167140621094191498e-03
 -7.141476097497967933e-03
 -7.116235702401927689e-03
 -7.091681917764203029e-03
 -7.068048463460807444e-03
 -7.045532370012033349e-03
 -7.024289001503618811e-03
 -7.004430117311768664e-03
 -6.986024718686650523e-03
 -6.969102175371989956e-03
 -6.953656990968016746e-03
 -6.939654539341940861e-03
 -6.927037164668981180e-03
 -6.915730152458329089e-03
 -6.905647216612607192e-03
 -6.896695282938507254e-03
 -7.418254733915830013e-03
 -7.409311919445759134e-03
 -7.399239326049550369e-03
 -7.387943987532992994e-03
 -7.375339715133379451e-03
 -7.361351873038981738e-03
 -7.345922856190741090e-03
 -7.329018051409380737e-03
 -7.310631927910492094e-03
 -7.290793765983412389e-03
 -7.269572417998939468e-03
 -7.247079435602919208e-03
 -7.223469922817686573e-03
 -7.198940610378151694e-03
 -7.173724896289860285e-03
 -7.148084939054991614e-03
 -7.122301272498482265e-03
 -7.096660764268522027e-03
 -7.071443989974077714e-03
 -7.046913185709742858e-03
 -7.023301852266845662e-03
 -7.000806835326857207e-03
 -6.979583353102038201e-03
 -6.959743059922914726e-03
 -6.941354892071621707e-03
 -6.924448191496358415e-03
 -6.909017466726280823e-03
 -6.895028123905130174e-03
 -6.882422561115509978e-03
 -6.871126133792312268e-03
 -6.861052636636745354e-03
 -6.852109082628218828e-03
 -7.372396335600784820e-03
 -7.363461566383289192e-03
 -7.353398034313599410e-03
 -7.342112856762119180e-03
 -7.329519922443791975e-03
 -7.315544662653190346e-03
 -7.300129524153254473e-03
 -7.283239924955653248e-03
 -7.264870339375143100e-03
 -7.245050021565072051e-03
 -7.223847762250839959e-03
 -7.201375013095358442e-03
 -7.177786739018522828e-03
 -7.153279494216062406e-03
 -7.128086467138869745e-03
 -7.102469580767018821e-03
 -7.076709116731167738e-03
 -7.051091684613562671e-03
 -7.025897607429417227e-03
 -7.001388885012154589e-03
 -6.977798807612485901e-03
 -6.955324043278723195e-03
 -6.934119670025293801e-03
 -6.914297241220569365e-03
 -6.895925630694023714e-03
 -6.879034153672764634e-03
 -6.863617323406186188e-03
 -6.849640577049018533e-03
 -6.837046364475667798e-03
 -6.825760108316422832e-03
 -6.815695680910862503e-03
 -6.806760179009778595e-03
 -7.325797051794659918e-03
 -7.316870024635499861e-03
 -7.306815212386692793e-03
 -7.295539812835540386e-03
 -7.282957789251041751e-03
 -7.268994637503765031e-03
 -7.253592854226166044e-03
 -7.236717887447779475e-03
 -7.218364216399137875e-03
 -7.198561070093529093e-03
 -7.177377179947951914e-03
 -7.154923901434001761e-03
 -7.131356065630063169e-03
 -7.106870056871718647e-03
 -7.081698861972731025e-03
 -7.056104177280963022e-03
 -7.030366041748132427e-03
 -7.004770816612397935e-03
 -6.979598581807191886e-03
 -6.955111109786367429e-03
 -6.931541488172315336e-03
 -6.909086214043658712e-03
 -6.887900230471232996e-03
 -6.868094993638760616e-03
 -6.849739317257792608e-03
 -6.832862490819262280e-03
 -6.817459032108640071e-03
 -6.803494408113120763e-03
 -6.790911118550293016e-03
 -6.779634650711883342e-03
 -6.769578951658442208e-03
 -6.760651198755744835e-03
 -7.278457900816388826e-03
 -7.269538339112284996e-03
 -7.259491935140108439e-03
 -7.248225964221094095e-03
 -7.235654461513587113e-03
 -7.221702985155906487e-03
 -7.206314079868625724e-03
 -7.189453222631433417e-03
 -7.171114897419314342e-03
 -7.151328309015591092e-03
 -7.130162131663090805e-03
 -7.107727628094791771e-03
 -7.084179500351432505e-03
 -7.059713968999533837e-03
 -7.034563826434264526e-03
 -7.008990550487884975e-03
 -6.983273946106803923e-03
 -6.957700135059389709e-03
 -6.932548962869542093e-03
 -6.908081982719608757e-03
 -6.884532086817180679e-03
 -6.862095607352857590e-03
 -6.840927357250935550e-03
 -6.821138698955511552e-03
 -6.802798388188109786e-03
 -6.785935689607963499e-03
 -6.770545125363457671e-03
 -6.756592191205230101e-03
 -6.744019434909129078e-03
 -6.732752406123436797e-03
 -6.722705123961105964e-03
 -6.713784843532444833e-03
 -7.230379841053111156e-03
 -7.221467496935495868e-03
 -7.211429222052831954e-03
 -7.200172366684911077e-03
 -7.187611035492360786e-03
 -7.173670846811405766e-03
 -7.158294391853642358e-03
 -7.141447175592674501e-03
 -7.123123686595395423e-03
 -7.103353106229330638e-03
 -7.082204053474184212e-03
 -7.059787701421476984e-03
 -7.036258627375759078e-03
 -7.011812893590127320e-03
 -6.986683104516431576e-03
 -6.961130526735587708e-03
 -6.935434738968624876e-03
 -6.909881631459844145e-03
 -6.884750823099402249e-03
 -6.860303655063117352e-03
 -6.836772830610002294e-03
 -6.814354522494236142e-03
 -6.793203417787880075e-03
 -6.773430788289169606e-03
 -6.755105333634436882e-03
 -6.738256294462212186e-03
 -6.722878197131086468e-03
 -6.708936565194190474e-03
 -6.696373992890065560e-03
 -6.685116090153811128e-03
 -6.675076945763290873e-03
 -6.666163889995986754e-03
 -7.181563770970260038e-03
 -7.172658427429018553e-03
 -7.162628037208415913e-03
 -7.151380023292210758e-03
 -7.138828557749680483e-03
 -7.124899317305487083e-03
 -7.109534938266099183e-03
 -7.092700952757492218e-03
 -7.074391853807789413e-03
 -7.054636800080800636e-03
 -7.033504356966238137e-03
 -7.011105610622367021e-03
 -6.987595017386204546e-03
 -6.963168485972623736e-03
 -6.938058438555791928e-03
 -6.912525936828598297e-03
 -6.886850340091143531e-03
 -6.861317314028144224e-03
 -6.836206257699740073e-03
 -6.811778306634286642e-03
 -6.788265980806400431e-03
 -6.765865298305915806e-03
 -6.744730824117265745e-03
 -6.724973742096997109e-03
 -6.706662697465920475e-03
 -6.689826907557013327e-03
 -6.674460902799689288e-03
 -6.660530233712005921e-03
 -6.647977539595973165e-03
 -6.636728488864833755e-03
 -6.626697237867828702e-03
 -6.617791189795271985e-03
 -7.132010529105932937e-03
 -7.123112002123077775e-03
 -7.113089289296865500e-03
 -7.101849884403653099e-03
 -7.089308025147940916e-03
 -7.075389445107825234e-03
 -7.060036824500071084e-03
 -7.043215721891865101e-03
 -7.024920634657363591e-03
 -7.005180699363608432e-03
 -6.984064429226983714e-03
 -6.961682825770477458e-03
 -6.938190227556314399e-03
 -6.913782393810670966e-03
 -6.888691569232596561e-03
 -6.863178616022705229e-03
 -6.837522679832763392e-03
 -6.812009207687085358e-03
 -6.786917384589662150e-03
 -6.762508145813568225e-03
 -6.739013832852472179e-03
 -6.716630313179768920e-03
 -6.695512032881821216e-03
 -6.675770090172721861e-03
 -6.657473077275855543e-03
 -6.640650188816354590e-03
 -6.625295959183969026e-03
 -6.611375965150363340e-03
 -6.598832889896257166e-03
 -6.587592458775754119e-03
 -6.577568893936435075e-03
 -6.568669669567004342e-03
 -7.081720894073917014e-03
 -7.072829034750227097e-03
 -7.062813831610485586e-03
 -7.051582847675699414e-03
 -7.039050384850528003e-03
 -7.025142232322395541e-03
 -7.009801113260057115e-03
 -6.992992612097510656e-03
 -6.974711230465187491e-03
 -6.954986083317652064e-03
 -6.933885632848603257e-03
 -6.911520797802094343e-03
 -6.888045801548932021e-03
 -6.863656257101933590e-03
 -6.838584235572126892e-03
 -6.813090404029587509e-03
 -6.787453699148797599e-03
 -6.761959354068760100e-03
 -6.736886344405808649e-03
 -6.712495409545504027e-03
 -6.689018716384091505e-03
 -6.666651985056309959e-03
 -6.645549545336521327e-03
 -6.625822411650176581e-03
 -6.607539124373514906e-03
 -6.590728855912532380e-03
 -6.575386144527141895e-03
 -6.561476592664034282e-03
 -6.548942926425596264e-03
 -6.537710926861752675e-03
 -6.527694880487123867e-03
 -6.518802330938660780e-03
 -7.030695584556915026e-03
 -7.021810281249044744e-03
 -7.011802462050351244e-03
 -7.000579758062512765e-03
 -6.988056534318587074e-03
 -6.974158634684025221e-03
 -6.958828824560702071e-03
 -6.942032713815758128e-03
 -6.923764808269427737e-03
 -6.904054201629643284e-03
 -6.882969305925938294e-03
 -6.860620958516860067e-03
 -6.837163269516068585e-03
 -6.812791708179633324e-03
 -6.787738174940524498e-03
 -6.762263145012534227e-03
 -6.736645349590921622e-03
 -6.711169811511254364e-03
 -6.686115300503536404e-03
 -6.661742363336877089e-03
 -6.638282995228577191e-03
 -6.615932771430517272e-03
 -6.594845907342695990e-03
 -6.575133335000384570e-03
 -6.556863543790624957e-03
 -6.540065684269471234e-03
 -6.524734298499088210e-03
 -6.510835014168415980e-03
 -6.498310599584004171e-03
 -6.487086890559325483e-03
 -6.477078236899270862e-03
 -6.468192250528271951e-03
 -6.978935259311998436e-03
 -6.970056439761979951e-03
 -6.960055923116746819e-03
 -6.948841407815266671e-03
 -6.936327321314990184e-03
 -6.922439561562107428e-03
 -6.907120935724864880e-03
 -6.890337078826061848e-03
 -6.872082500828569432e-03
 -6.852386274433163935e-03
 -6.831316762058129745e-03
 -6.808984720577598154e-03
 -6.785544148099529292e-03
 -6.761190371710070965e-03
 -6.736155123049375991e-03
 -6.710698687588613834e-03
 -6.685099593310490050e-03
 -6.659642655061988499e-03
 -6.634606438953695798e-03
 -6.610251301259638043e-03
 -6.586809067403136785e-03
 -6.564475169347125903e-03
 -6.543403709374209266e-03
 -6.523705538032270948e-03
 -6.505449094279987417e-03
 -6.488663507061585844e-03
 -6.473343322197211078e-03
 -6.459454192341307702e-03
 -6.446938927537261554e-03
 -6.435723417761698463e-03
 -6.425722075410134765e-03
 -6.416842579945896720e-03
 -6.926440517172256263e-03
 -6.917568150635308721e-03
 -6.907574901920630721e-03
 -6.896368536477574113e-03
 -6.883863543902419245e-03
 -6.869985875958582039e-03
 -6.854678381386784466e-03
 -6.837906720245782652e-03
 -6.819665406622409283e-03
 -6.799983492308128187e-03
 -6.778929290347627395e-03
 -6.756613477511034908e-03
 -6.733189940431123267e-03
 -6.708853864696709066e-03
 -6.683836813953917579e-03
 -6.658398884829813853e-03
 -6.632818403056332628e-03
 -6.607379976477171721e-03
 -6.582361968547584263e-03
 -6.558024545949279679e-03
 -6.534599365116826840e-03
 -6.512281715405638348e-03
 -6.491225586515541636e-03
 -6.471541747895915263e-03
 -6.453298588317205389e-03
 -6.436525215214850514e-03
 -6.421216178149595326e-03
 -6.407337154624571755e-03
 -6.394830996221848723e-03
 -6.383623646823473850e-03
 -6.373629581120336327e-03
 -6.364756545792544899e-03
 -6.873211897043147826e-03
 -6.864345996422557307e-03
 -6.854360030174138675e-03
 -6.843161830895934904e-03
 -6.830665950444270683e-03
 -6.816798394511069427e-03
 -6.801502053492302670e-03
 -6.784742612532687622e-03
 -6.766514589850326951e-03
 -6.746847016283767998e-03
 -6.725808155402927292e-03
 -6.703508603709301683e-03
 -6.680102136133335769e-03
 -6.655783796478138836e-03
 -6.630784980054017785e-03
 -6.605365594262447605e-03
 -6.579803762177451748e-03
 -6.554383884222509012e-03
 -6.529384120795614886e-03
 -6.505064448608001079e-03
 -6.481656354773314595e-03
 -6.459354985757843025e-03
 -6.438314218463414562e-03
 -6.418644741082298218e-03
 -6.400414892101570670e-03
 -6.383653757408398570e-03
 -6.368355890316202729e-03
 -6.354486993225798817e-03
 -6.341989959342552580e-03
 -6.330790786562357983e-03
 -6.320804011992417655e-03
 -6.311937449664665849e-03
 -6.819249877905596627e-03
 -6.810390501882214107e-03
 -6.800411884198344012e-03
 -6.789221925212382200e-03
 -6.776735239605973828e-03
 -6.762877887492651022e-03
 -6.747592801298814801e-03
 -6.730845691483800831e-03
 -6.712631080433074417e-03
 -6.692977977837797840e-03
 -6.671954597338245613e-03
 -6.649671454430800509e-03
 -6.626282211321075921e-03
 -6.601981768730279775e-03
 -6.577001352096824641e-03
 -6.551600677870693910e-03
 -6.526057664623768385e-03
 -6.500656503476885673e-03
 -6.475675149929561135e-03
 -6.451373389005529875e-03
 -6.427982536969819791e-03
 -6.405697596114691590e-03
 -6.384672329530112489e-03
 -6.365017343425674774e-03
 -6.346800925558010974e-03
 -6.330052140077958855e-03
 -6.314765544089776667e-03
 -6.300906865120683639e-03
 -6.288419038377930127e-03
 -6.277228116258064955e-03
 -6.267248698855259689e-03
 -6.258388668157918028e-03
 -6.764554878817716395e-03
 -6.755702133982507962e-03
 -6.745730984922780615e-03
 -6.734549400870318975e-03
 -6.722072060358648578e-03
 -6.708225078811809461e-03
 -6.692951431377706928e-03
 -6.676216854239801733e-03
 -6.658015874016294869e-03
 -6.638377478899362867e-03
 -6.617369831775130225e-03
 -6.595103365801720241e-03
 -6.571731628603649095e-03
 -6.547449375469928043e-03
 -6.522487659177256605e-03
 -6.497106002096887656e-03
 -6.471582114948683413e-03
 -6.446199976132062880e-03
 -6.421237332904555263e-03
 -6.396953775480948914e-03
 -6.373580446501078516e-03
 -6.351312201743428837e-03
 -6.330302688644390968e-03
 -6.310662430106551805e-03
 -6.292459662340855152e-03
 -6.275723427417220085e-03
 -6.260448286298529209e-03
 -6.246599992053814346e-03
 -6.234121522578330021e-03
 -6.222938985661196666e-03
 -6.212967045404854151e-03
 -6.204113652864047361e-03
 -6.709127258916926587e-03
 -6.700281301898592702e-03
 -6.690317797887384080e-03
 -6.679144786613393052e-03
 -6.666677011976185861e-03
 -6.652840646018069043e-03
 -6.637578707615245793e-03
 -6.620856959284503879e-03
 -6.602669931969247681e-03
 -6.583046591849624381e-03
 -6.562055049845477370e-03
 -6.539805654816589070e-03
 -6.516451837085330233e-03
 -6.492188203052761536e-03
 -6.467245628741356660e-03
 -6.441883437842346391e-03
 -6.416379128310082877e-03
 -6.391016460795201706e-03
 -6.366072969401261918e-03
 -6.341808044945650494e-03
 -6.318452652361138643e-03
 -6.296201497472985083e-03
 -6.275208109353344089e-03
 -6.255582925652564130e-03
 -6.237394129834365752e-03
 -6.220670741379708685e-03
 -6.205407325209595822e-03
 -6.191569660543704869e-03
 -6.179100768973730048e-03
 -6.167926814988474934e-03
 -6.157962528207842380e-03
 -6.149115930379340546e-03
 -6.652967317417205449e-03
 -6.644128357018054890e-03
 -6.634172733241590521e-03
 -6.623008558489132218e-03
 -6.610550644040147361e-03
 -6.596725220298362349e-03
 -6.581475351214970126e-03
 -6.564766826446019783e-03
 -6.546594181389169508e-03
 -6.526986359523757365e-03
 -6.506011418191582837e-03
 -6.483779619343489967e-03
 -6.460444272368316351e-03
 -6.436199830179201511e-03
 -6.411276986585654793e-03
 -6.385934860472985627e-03
 -6.360450730473386771e-03
 -6.335108132791455668e-03
 -6.310184381827926847e-03
 -6.285938662885708593e-03
 -6.262601757745848291e-03
 -6.240368217695065577e-03
 -6.219391449827044865e-03
 -6.199781803942041106e-03
 -6.181607409156302142e-03
 -6.164897261681660627e-03
 -6.149645930530943556e-03
 -6.135819221882561625e-03
 -6.123360202373373702e-03
 -6.112195094930329177e-03
 -6.102238696704690747e-03
 -6.093399102304948578e-03
 -6.596075293618516508e-03
 -6.587243592940728205e-03
 -6.577296145748649098e-03
 -6.566141139850406594e-03
 -6.553693456440278127e-03
 -6.539879386482956927e-03
 -6.524642040699609249e-03
 -6.507947236900627624e-03
 -6.489789515101308977e-03
 -6.470197795213085065e-03
 -6.449240078969632230e-03
 -6.427026538122116925e-03
 -6.403710356554045795e-03
 -6.379485827894366620e-03
 -6.354583456862686157e-03
 -6.329262149817888559e-03
 -6.303798957814351483e-03
 -6.278477184167246747e-03
 -6.253573915323281697e-03
 -6.229348123363311757e-03
 -6.206030400055417146e-03
 -6.183815136366972894e-03
 -6.162855612859774283e-03
 -6.143262088207735415e-03
 -6.125102635160900762e-03
 -6.108406225806233339e-03
 -6.093167433414349576e-03
 -6.079352092143275321e-03
 -6.066903315368581302e-03
 -6.055747386653126396e-03
 -6.045799173211385477e-03
 -6.036966845248176519e-03
 </DataArray>
 <DataArray Name="pos.y" type="Float32" NumberOfComponents="1" format="ascii">
 5.668818591843175110e-03
 5.656007062897169466e-03
 5.641577006852998254e-03
 5.625395239985264348e-03
 5.607338287931230847e-03
 5.587299227095936238e-03
 5.565195532137952837e-03
 5.540977615868507983e-03
 5.514637554516597755e-03
 5.486217294623402761e-03
 5.455815473686764436e-03
 5.423591900212042238e-03
 5.389768775939300302e-03
 5.354627937229983550e-03
 5.318503750292470113e-03
 5.281771784037706495e-03
 5.244833932367177348e-03
 5.208101163542416291e-03
 5.171975432330062038e-03
 5.136832420668271948e-03
 5.103006644487653558e-03
 5.070780107595922181e-03
 5.040375178070858990e-03
 5.011951814001908145e-03
 4.985608775118453677e-03
 4.961388097783856269e-03
 4.939281915486336272e-03
 4.919240669181632920e-03
 4.901181838091170362e-03
 4.884998485859513850e-03
 4.870567114022690720e-03
 4.857754508505555957e-03
 5.771875317233930193e-03
 5.758757848901507881e-03
 5.743983202588997909e-03
 5.727415014043384101e-03
 5.708926860248405948e-03
 5.688409264215742341e-03
 5.665777729894626823e-03
 5.640981486025996999e-03
 5.614012419788696681e-03
 5.584913479697787946e-03
 5.553785659129017310e-03
 5.520792583342121196e-03
 5.486161760864749493e-03
 5.450181758945755323e-03
 5.413194929048289333e-03
 5.375585809131471458e-03
 5.337765890588854790e-03
 5.300155955621758778e-03
 5.263167557432864643e-03
 5.227185348763843838e-03
 5.192551833122101800e-03
 5.159555747800315291e-03
 5.128424770243266220e-03
 5.099322677614372482e-03
 5.072350587415853582e-03
 5.047551539377804521e-03
 5.024917478830672433e-03
 5.004397663098633132e-03
 4.985907600770851829e-03
 4.969337801907044994e-03
 4.954561819020927155e-03
 4.941443257047919632e-03
 5.874835533746174121e-03
 5.861409578345755551e-03
 5.846287472196129778e-03
 5.829329644025111300e-03
 5.810406697603488595e-03
 5.789406581284147098e-03
 5.766242811896337035e-03
 5.740863424255526239e-03
 5.713260114929423136e-03
 5.683476842768702721e-03
 5.651616976670733802e-03
 5.617847990468155875e-03
 5.582402743704266770e-03
 5.545576590606406640e-03
 5.507719934422197934e-03
 5.469226356876276569e-03
 5.430517026789824855e-03
 5.392022622028406001e-03
 5.354164374143795604e-03
 5.317335981352100567e-03
 5.281888001211928335e-03
 5.248115960524173465e-03
 5.216252890265235011e-03
 5.186466418430480188e-03
 5.158860039892875816e-03
 5.133477806074439841e-03
 5.110311472562583009e-03
 5.089309103184563518e-03
 5.070384219484028870e-03
 5.053424756674752306e-03
 5.038301293699870217e-03
 5.024874228022654932e-03
 5.977690139251228517e-03
 5.963953189164665838e-03
 5.948480798733987718e-03
 5.931130163594815381e-03
 5.911768890128582359e-03
 5.890282331100388583e-03
 5.866582000067811602e-03
 5.840614728220153498e-03
 5.812372019976082965e-03
 5.781898852753375451e-03
 5.749300990307858877e-03
 5.714749786360075016e-03
 5.678483495004605676e-03
 5.640804312652705071e-03
 5.602070759824236308e-03
 5.562685535549523504e-03
 5.523079564755993022e-03
 5.483693501412574209e-03
 5.444958334075057291e-03
 5.407276879932459285e-03
 5.371007816020801837e-03
 5.336453513794321007e-03
 5.303852401228830934e-03
 5.273375988411977550e-03
 5.245130166872740210e-03
 5.219160007924889509e-03
 5.195457075849761915e-03
 5.173968231268067340e-03
 5.154604992521402002e-03
 5.137252699053593795e-03
 5.121778932070725730e-03
 5.108040855504291863e-03
 6.080429627320112565e-03
 6.066379217758424355e-03