<VTKFile type="UnstructuredGrid" byte_order="BigEndian">
<UnstructuredGrid><Piece NumberOfPoints="627" NumberOfCells="576">
<Points>
 <DataArray type="Float32" NumberOfComponents="3" format="ascii">
 -8.750000037252902985e-03 0.000000000000000000e+00 0.000000000000000000e+00
 -8.740860037505626678e-03 0.000000000000000000e+00 0.000000000000000000e+00
 -8.730542846024036407e-03 0.000000000000000000e+00 0.000000000000000000e+00
 -8.718945086002349854e-03 0.000000000000000000e+00 0.000000000000000000e+00
 -8.705967105925083160e-03 0.000000000000000000e+00 0.000000000000000000e+00
 -8.691521361470222473e-03 0.000000000000000000e+00 0.000000000000000000e+00
 -8.675533346831798553e-03 0.000000000000000000e+00 0.000000000000000000e+00
 -8.657951839268207550e-03 0.000000000000000000e+00 0.000000000000000000e+00
 -8.638753555715084076e-03 0.000000000000000000e+00 0.000000000000000000e+00
 -8.617948740720748901e-03 0.000000000000000000e+00 0.000000000000000000e+00
 -8.595590479671955109e-03 0.000000000000000000e+00 0.000000000000000000e+00
 -8.571776561439037323e-03 0.000000000000000000e+00 0.000000000000000000e+00
 -8.546652272343635559e-03 0.000000000000000000e+00 0.000000000000000000e+00
 -8.520409464836120605e-03 0.000000000000000000e+00 0.000000000000000000e+00
 -8.493283763527870178e-03 0.000000000000000000e+00 0.000000000000000000e+00
 -8.465548045933246613e-03 0.000000000000000000e+00 0.000000000000000000e+00
 -8.437500335276126862e-03 0.000000000000000000e+00 0.000000000000000000e+00
 -8.409451693296432495e-03 0.000000000000000000e+00 0.000000000000000000e+00
 -8.381715975701808929e-03 0.000000000000000000e+00 0.000000000000000000e+00
 -8.354591205716133118e-03 0.000000000000000000e+00 0.000000000000000000e+00
 -8.328348398208618164e-03 0.000000000000000000e+00 0.000000000000000000e+00
 -8.303223177790641785e-03 0.000000000000000000e+00 0.000000000000000000e+00
 -8.279409259557723999e-03 0.000000000000000000e+00 0.000000000000000000e+00
 -8.257051929831504822e-03 0.000000000000000000e+00 0.000000000000000000e+00
 -8.236247114837169647e-03 0.000000000000000000e+00 0.000000000000000000e+00
 -8.217047899961471558e-03 0.000000000000000000e+00 0.000000000000000000e+00
 -8.199466392397880554e-03 0.000000000000000000e+00 0.000000000000000000e+00
 -8.183478377759456635e-03 0.000000000000000000e+00 0.000000000000000000e+00
 -8.169032633304595947e-03 0.000000000000000000e+00 0.000000000000000000e+00
 -8.156054653227329254e-03 0.000000000000000000e+00 0.000000000000000000e+00
 -8.144456893205642700e-03 0.000000000000000000e+00 0.000000000000000000e+00
 -8.134139701724052429e-03 0.000000000000000000e+00 0.000000000000000000e+00
 -8.124999701976776123e-03 0.000000000000000000e+00 0.000000000000000000e+00
 -8.749550208449363708e-03 1.061536240740679204e-04 0.000000000000000000e+00
 -8.740411140024662018e-03 1.059795977198518813e-04 0.000000000000000000e+00
 -8.730094879865646362e-03 1.057831614161841571e-04 0.000000000000000000e+00
 -8.718498051166534424e-03 1.055623361025936902e-04 0.000000000000000000e+00
 -8.705521933734416962e-03 1.053152373060584068e-04 0.000000000000000000e+00
 -8.691077120602130890e-03 1.050401842803694308e-04 0.000000000000000000e+00
 -8.675090968608856201e-03 1.047357727657072246e-04 0.000000000000000000e+00
 -8.657510392367839813e-03 1.044010205077938735e-04 0.000000000000000000e+00
 -8.638313040137290955e-03 1.040354691212996840e-04 0.000000000000000000e+00
 -8.617510087788105011e-03 1.036393441609106958e-04 0.000000000000000000e+00
 -8.595154620707035065e-03 1.032136497087776661e-04 0.000000000000000000e+00
 -8.571342565119266510e-03 1.027602265821769834e-04 0.000000000000000000e+00
 -8.546220138669013977e-03 1.022818469209596515e-04 0.000000000000000000e+00
 -8.519980125129222870e-03 1.017821850837208331e-04 0.000000000000000000e+00
 -8.492856286466121674e-03 1.012657085084356368e-04 0.000000000000000000e+00
 -8.465123362839221954e-03 1.007376195047982037e-04 0.000000000000000000e+00
 -8.437077514827251434e-03 1.002035860437899828e-04 0.000000000000000000e+00
 -8.409032598137855530e-03 9.966954530682414770e-05 0.000000000000000000e+00
 -8.381299674510955811e-03 9.914145630318671465e-05 0.000000000000000000e+00
 -8.354175835847854614e-03 9.862498700385913253e-05 0.000000000000000000e+00
 -8.327935822308063507e-03 9.812531789066269994e-05 0.000000000000000000e+00
 -8.302813395857810974e-03 9.764693822944536805e-05 0.000000000000000000e+00
 -8.279001340270042419e-03 9.719352237880229950e-05 0.000000000000000000e+00
 -8.256644941866397858e-03 9.676782065071165562e-05 0.000000000000000000e+00
 -8.235842920839786530e-03 9.637169569032266736e-05 0.000000000000000000e+00
 -8.216645568609237671e-03 9.600614430382847786e-05 0.000000000000000000e+00
 -8.199064992368221283e-03 9.567139204591512680e-05 0.000000000000000000e+00
 -8.183078840374946594e-03 9.536698053125292063e-05 0.000000000000000000e+00
 -8.168634027242660522e-03 9.509192750556394458e-05 0.000000000000000000e+00
 -8.155657909810543060e-03 9.484482870902866125e-05 0.000000000000000000e+00
 -8.144061081111431122e-03 9.462400339543819427e-05 0.000000000000000000e+00
 -8.133744820952415466e-03 9.442756709177047014e-05 0.000000000000000000e+00
 -8.124605752527713776e-03 9.425354073755443096e-05 0.000000000000000000e+00
 -8.748204447329044342e-03 2.120954013662412763e-04 0.000000000000000000e+00
 -8.739067241549491882e-03 2.117468393407762051e-04 0.000000000000000000e+00
 -8.728753775358200073e-03 2.113533701049163938e-04 0.000000000000000000e+00
 -8.717159740626811981e-03 2.109110646415501833e-04 0.000000000000000000e+00
 -8.704187348484992981e-03 2.104161394527181983e-04 0.000000000000000000e+00
 -8.689746260643005371e-03 2.098652184940874577e-04 0.000000000000000000e+00
 -8.673763833940029144e-03 2.092554786941036582e-04 0.000000000000000000e+00
 -8.656187914311885834e-03 2.085849700961261988e-04 0.000000000000000000e+00
 -8.636996150016784668e-03 2.078527904814109206e-04 0.000000000000000000e+00
 -8.616198785603046417e-03 2.070593618554994464e-04 0.000000000000000000e+00
 -8.593847975134849548e-03 2.062066923826932907e-04 0.000000000000000000e+00
 -8.570042438805103302e-03 2.052985073532909155e-04 0.000000000000000000e+00
 -8.544926531612873077e-03 2.043403364950791001e-04 0.000000000000000000e+00
 -8.518693037331104279e-03 2.033394994214177132e-04 0.000000000000000000e+00
 -8.491576649248600006e-03 2.023050328716635704e-04 0.000000000000000000e+00
 -8.463851176202297211e-03 2.012472687056288123e-04 0.000000000000000000e+00
 -8.435812778770923615e-03 2.001776156248524785e-04 0.000000000000000000e+00
 -8.407774381339550018e-03 1.991079479921609163e-04 0.000000000000000000e+00
 -8.380048908293247223e-03 1.980501983780413866e-04 0.000000000000000000e+00
 -8.352932520210742950e-03 1.970157172763720155e-04 0.000000000000000000e+00
 -8.326699025928974152e-03 1.960148947546258569e-04 0.000000000000000000e+00
 -8.301583118736743927e-03 1.950567093444988132e-04 0.000000000000000000e+00
 -8.277777582406997681e-03 1.941485243150964379e-04 0.000000000000000000e+00
 -8.255426771938800812e-03 1.932958548422902822e-04 0.000000000000000000e+00
 -8.234629407525062561e-03 1.925024262163788080e-04 0.000000000000000000e+00
 -8.215437643229961395e-03 1.917702466016635299e-04 0.000000000000000000e+00
 -8.197861723601818085e-03 1.910997380036860704e-04 0.000000000000000000e+00
 -8.181879296898841858e-03 1.904900127556174994e-04 0.000000000000000000e+00
 -8.167438209056854248e-03 1.899390772450715303e-04 0.000000000000000000e+00
 -8.154465816915035248e-03 1.894441520562395453e-04 0.000000000000000000e+00
 -8.142871782183647156e-03 1.890018465928733349e-04 0.000000000000000000e+00
 -8.132558315992355347e-03 1.886083773570135236e-04 0.000000000000000000e+00
 -8.123421110212802887e-03 1.882598153315484524e-04 0.000000000000000000e+00
 -8.745966479182243347e-03 3.178383340127766132e-04 0.000000000000000000e+00
 -8.736833930015563965e-03 3.173145814798772335e-04 0.000000000000000000e+00
 -8.726524189114570618e-03 3.167233953718096018e-04 0.000000000000000000e+00
 -8.714934810996055603e-03 3.160588094033300877e-04 0.000000000000000000e+00
 -8.701968006789684296e-03 3.153151774313300848e-04 0.000000000000000000e+00
 -8.687532506883144379e-03 3.144874062854796648e-04 0.000000000000000000e+00
 -8.671557530760765076e-03 3.135712759103626013e-04 0.000000000000000000e+00
 -8.653989061713218689e-03 3.125638177152723074e-04 0.000000000000000000e+00
 -8.634804747998714447e-03 3.114636929240077734e-04 0.000000000000000000e+00
 -8.614015765488147736e-03 3.102715418208390474e-04 0.000000000000000000e+00
 -8.591675199568271637e-03 3.089903912041336298e-04 0.000000000000000000e+00
 -8.567879907786846161e-03 3.076257999055087566e-04 0.000000000000000000e+00
 -8.542774245142936707e-03 3.061861207243055105e-04 0.000000000000000000e+00
 -8.516550995409488678e-03 3.046823549084365368e-04 0.000000000000000000e+00
 -8.489446714520454407e-03 3.031280357390642166e-04 0.000000000000000000e+00
 -8.461732417345046997e-03 3.015387046616524458e-04 0.000000000000000000e+00
 -8.433706127107143402e-03 2.999315329361706972e-04 0.000000000000000000e+00
 -8.405679836869239807e-03 2.983243321068584919e-04 0.000000000000000000e+00
 -8.377964608371257782e-03 2.967350301332771778e-04 0.000000000000000000e+00
 -8.350860327482223511e-03 2.951806818600744009e-04 0.000000000000000000e+00
 -8.324638009071350098e-03 2.936769160442054272e-04 0.000000000000000000e+00
 -8.299532346427440643e-03 2.922372368630021811e-04 0.000000000000000000e+00
 -8.275737054646015167e-03 2.908726455643773079e-04 0.000000000000000000e+00
 -8.253395557403564453e-03 2.895914949476718903e-04 0.000000000000000000e+00
 -8.232607506215572357e-03 2.883993729483336210e-04 0.000000000000000000e+00
 -8.213423192501068115e-03 2.872992190532386303e-04 0.000000000000000000e+00
 -8.195854723453521729e-03 2.862917608581483364e-04 0.000000000000000000e+00
 -8.179878816008567810e-03 2.853756304830312729e-04 0.000000000000000000e+00
[...]
<CellData>
 <DataArray Name="pos.x" type="Float32" NumberOfComponents="1" format="ascii">
 -8.745206687190709011e-03
 -8.735478982500530232e-03
 -8.724522338186926559e-03
 -8.712235628102416030e-03
 -8.698525098494511512e-03
 -8.683309562765240824e-03
 -8.666526360202455453e-03
 -8.648137840453902839e-03
 -8.628137988741811648e-03
 -8.606558657443239002e-03
 -8.583474744989546407e-03
 -8.559007597430154379e-03
 -8.533325936172115114e-03
 -8.506643762902291184e-03
 -8.479214964375408198e-03
 -8.451324711129991341e-03
 -8.423278160350882934e-03
 -8.395387357198452055e-03
 -8.367957500716336969e-03
 -8.341273839162366074e-03
 -8.315590362210505820e-03
 -8.291121186600570320e-03
 -8.268035147952924185e-03
 -8.246453694943154181e-03
 -8.226451809749129804e-03
 -8.208061406173880123e-03
 -8.191276508453575189e-03
 -8.176059485249777270e-03
 -8.162347678670448317e-03
 -8.150059893086194704e-03
 -8.139102357960604356e-03
 -8.129373926123246302e-03
 -8.744309630469907640e-03
 -8.734583616273269152e-03
 -8.723628876204418681e-03
 -8.711344301735765919e-03
 -8.697636155431620608e-03
 -8.682423264833779783e-03
 -8.665642980113335420e-03
 -8.647257657423867289e-03
 -8.627261282958998898e-03
 -8.605685703427868108e-03
 -8.582605804066200869e-03
 -8.558142909610296292e-03
 -8.532465711877592826e-03
 -8.505788175100505513e-03
 -8.478364141661996756e-03
 -8.450478732352342814e-03
 -8.422437051218442314e-03
 -8.394551089198041410e-03
 -8.367125992406842031e-03
 -8.340446959751160114e-03
 -8.314767937055047090e-03
 -8.290303004184535265e-03
 -8.267220967757430219e-03
 -8.245643255656413123e-03
 -8.225644837293476577e-03
 -8.207257621116343174e-03
 -8.190475632541180037e-03
 -8.175261246826546688e-03
 -8.161551816988639463e-03
 -8.149266161486166948e-03
 -8.138310526017673158e-03
 -8.128583780928972519e-03
 -8.742519190042940397e-03
 -8.732796476514335937e-03
 -8.721845454308622611e-03
 -8.709565049248302326e-03
 -8.695861555751001684e-03
 -8.680653828923811516e-03
 -8.663879240204244714e-03
 -8.645500158476537855e-03
 -8.625510571889373826e-03
 -8.603942316208460298e-03
 -8.580870251055607717e-03
 -8.556415659737769130e-03
 -8.530747176542981605e-03
 -8.504078692791012042e-03
 -8.476663964448228478e-03
 -8.448788015332492699e-03
 -8.420755845835943207e-03
 -8.392879341015459585e-03
 -8.365463543558890672e-03
 -8.338793555817385766e-03
 -8.313123237759822634e-03
 -8.288666596963333022e-03
 -8.265592383134890558e-03
 -8.244021983286954278e-03
 -8.224030341678911088e-03
 -8.205649356151230658e-03
 -8.188873054282199554e-03
 -8.173663824179574697e-03
 -8.159959040137465883e-03
 -8.147677548133839404e-03
 -8.136725625627599240e-03
 -8.127002177205664563e-03
 -8.739839732704228134e-03
 -8.730121837224106424e-03
 -8.719176241969453511e-03
 -8.706901922894685550e-03
 -8.693205220902989333e-03
 -8.678005031330345356e-03
 -8.661238756645223830e-03
 -8.642868784345518821e-03
 -8.622889105464621312e-03
 -8.601331539835400594e-03
 -8.578270909773179353e-03
 -8.553828438213065960e-03
 -8.528172675563858857e-03
 -8.501517406832621512e-03
 -8.474116261942372594e-03
 -8.446254123240935080e-03
 -8.418235839853445077e-03
 -8.390373142282839605e-03
 -8.362970922191374432e-03
 -8.336314140904547629e-03
 -8.310656532933637791e-03
 -8.286212000202713979e-03
 -8.263149209198563869e-03
 -8.241589487152175056e-03
 -8.221607741493951876e-03
 -8.203235854492861578e-03
 -8.186467856844086358e-03
 -8.171266155372282694e-03
 -8.157568155424704814e-03
 -8.145292743161093585e-03
 -8.134346242427367007e-03
 -8.124627607824638428e-03
 -8.736275565416319611e-03
 -8.726563914689755910e-03
 -8.715625353347978763e-03
 -8.703358922318323726e-03
 -8.689671022726271760e-03
 -8.674480602059636558e-03
 -8.657725103007433975e-03
 -8.639366937191464077e-03
 -8.619400099410189434e-03
 -8.597856388888760679e-03
 -8.574810579629091670e-03
 -8.550383816380029492e-03
 -8.524744540909330245e-03
 -8.498106400499593621e-03
 -8.470722861777324822e-03
 -8.442878623778840227e-03
 -8.414878339598783757e-03
 -8.387033539420494718e-03
 -8.359648919125040739e-03
 -8.333009257191962768e-03
 -8.307368125450999286e-03
 -8.282939288795457614e-03
 -8.259891305752711452e-03
 -8.238345425986176238e-03
 -8.218376509123687113e-03
 -8.200016417195775398e-03
 -8.183259184899366670e-03
 -8.168067243304511296e-03
 -8.154378037999657561e-03
 -8.142110507238221190e-03
 -8.131171034998479347e-03
 -8.121458640718649813e-03
 -8.731830935308389219e-03
 -8.722126867504630815e-03
 -8.711196847313147640e-03
 -8.698939994549511473e-03
 -8.685262783459636593e-03
 -8.670084224854938265e-03
 -8.653341810261521230e-03
 -8.634997980607064458e-03
 -8.615046735273806586e-03
 -8.593519848488164262e-03
 -8.570492035625964719e-03
 -8.546084346540265900e-03
 -8.520465091127263357e-03
 -8.493847749491531887e-03
 -8.466485590019485682e-03
 -8.438663089192369529e-03
 -8.410684662085443630e-03
 -8.382861595642323790e-03
 -8.355498347982321175e-03
 -8.328879475514479325e-03
 -8.303258352467776313e-03
 -8.278848577272750545e-03
 -8.255818577297208138e-03
 -8.234289507950581441e-03
 -8.214336170760783151e-03
 -8.195990403146608330e-03
 -8.179246244637261229e-03
 -8.164066155726816196e-03
 -8.150387630872056241e-03
 -8.138129671582063421e-03
 -8.127198734862641633e-03
 -8.117493918904939917e-03
 -8.726510029690857234e-03
 -8.716814796572191701e-03
 -8.705894727441682024e-03
 -8.693649034017560812e-03
 -8.679984275747232303e-03
 -8.664819537194144022e-03
 -8.648092366794231725e-03
 -8.629765239627390158e-03
 -8.609832160421342431e-03
 -8.588324874303018483e-03
 -8.565318028373108267e-03
 -8.540932561957141622e-03
 -8.515336631359638267e-03
 -8.488743521946442647e-03
 -8.461406271178539135e-03
 -8.433609096277950787e-03
 -8.405656135028092071e-03
 -8.377858390971137589e-03
 -8.350520045202468669e-03
 -8.323925395368603555e-03
 -8.298327585429624356e-03
 -8.273940019815906322e-03
 -8.250930973038554314e-03
 -8.229421490640582634e-03
 -8.209486306417329224e-03
 -8.191157229080455252e-03
 -8.174428303768525167e-03
 -8.159262025250375167e-03
 -8.145595944908996799e-03
 -8.133349137961900371e-03
 -8.122428146503679960e-03
 -8.112732160488571320e-03
 -8.720316976061671249e-03
 -8.710631745105912663e-03
 -8.699722942027709321e-03
 -8.687489882571661215e-03
 -8.673839222639583013e-03
 -8.658690130299233345e-03
 -8.641980218419534690e-03
 -8.623672000734902351e-03
 -8.603759488054233198e-03
 -8.582274392564905041e-03
 -8.559291284095488575e-03
 -8.534930976875472475e-03
 -8.509361453345271054e-03
 -8.482795778443937354e-03
 -8.455486728219276452e-03
 -8.427718226399599430e-03
 -8.399794096845353275e-03
 -8.372025022247028825e-03
 -8.344714870054855890e-03
 -8.318147644921881217e-03
 -8.292576230074557783e-03
 -8.268213810270022904e-03
 -8.245228486903859524e-03
 -8.223741181098089340e-03
 -8.203826549931764189e-03
 -8.185516369589003818e-03
 -8.168804691541754412e-03
 -8.153654049354593092e-03
 -8.140002058851123976e-03
 -8.127767878712824010e-03
 -8.116858147360676845e-03
 -8.107172158663494832e-03
 -8.713255842108849278e-03
 -8.703581698661750146e-03
 -8.692685384091658127e-03
 -8.680466329471800066e-03
 -8.666831297613560373e-03
 -8.651699549155317248e-03
 -8.635008768375902408e-03
 -8.616721511879100667e-03
 -8.596831797213575627e-03
 -8.575371300070619429e-03
 -8.552414504645611260e-03
 -8.528082086520175770e-03
 -8.502541835439442197e-03
 -8.476006572023183500e-03
 -8.448728782574311744e-03
 -8.420992065495765469e-03
 -8.393099896676980282e-03
 -8.365362603141596881e-03
 -8.338083704641745600e-03
 -8.311546881028098951e-03
 -8.286004726460023673e-03
 -8.261670182144836144e-03
 -8.238711157544089878e-03
 -8.217248435822594940e-03
 -8.197356588982067371e-03
 -8.179067357131402510e-03
 -8.162374798748747717e-03
 -8.147241490390083954e-03
 -8.133605119325466523e-03
 -8.121384936741790628e-03
 -8.110487687859661149e-03
 -8.100812781730496945e-03
 -8.705330635731294703e-03
 -8.695668585114198559e-03
 -8.684785891389762771e-03
 -8.672582111408023292e-03
 -8.658964124580925334e-03
 -8.643851292501157982e-03
 -8.627181377350237254e-03
 -8.608916982475527460e-03
 -8.589052132792603100e-03
 -8.567618464199754091e-03
 -8.544690367512998083e-03
 -8.520388367117067915e-03
 -8.494880042618562985e-03
 -8.468377948193371932e-03
 -8.441134254149518582e-03
 -8.413432204093433328e-03
 -8.385574894396266923e-03
 -8.357872264166472248e-03
 -8.330627453922769335e-03
 -8.304123789235199823e-03
 -8.278613548962051802e-03
 -8.254309408637465484e-03
 -8.231379068357936105e-03
 -8.209943160779534579e-03
 -8.190076165097995298e-03
 -8.171809782047246770e-03
 -8.155138077735811855e-03
 -8.140023675606983256e-03
 -8.126404340846897847e-03
 -8.114199425541028521e-03
 -8.103315791405028140e-03
 -8.093652973118011310e-03
 -8.696545305039746904e-03
 -8.686896274690507694e-03
 -8.676028246423451648e-03
 -8.663840912506541592e-03
 -8.650241277885615046e-03
 -8.635148812861556319e-03
 -8.618501363475944421e-03
 -8.600261583422381256e-03
 -8.580423505546722757e-03
 -8.559018722922126510e-03
 -8.536121525832983739e-03
 -8.511852275899775555e-03
 -8.486378326495278013e-03
 -8.459911944943845907e-03
 -8.432704961346515482e-03
 -8.405040237318020177e-03
 -8.377220460617703160e-03
 -8.349555152689801599e-03
 -8.322347045715777422e-03
 -8.295879083802640969e-03
 -8.270403206291240122e-03
 -8.246131802641351247e-03
 -8.223232347486651023e-03
 -8.201825311419205788e-03
 -8.181985073666877412e-03
 -8.163743292563320139e-03
 -8.147094042419925769e-03
 -8.131999997150239981e-03
 -8.118399005838354207e-03
 -8.106210529203402432e-03
 -8.095341554397419287e-03
 -8.085691751370034652e-03
 -8.686903738359733756e-03
 -8.677268579967952269e-03
 -8.666416176448199504e-03
 -8.654246364336003194e-03
 -8.640666282330743825e-03
 -8.625595516534004595e-03
 -8.608972002350360683e-03
 -8.590758447105502349e-03
 -8.570948892107329090e-03
 -8.549574884804449215e-03
 -8.526710608402937250e-03
 -8.502476251121568115e-03
 -8.477038925328514440e-03
 -8.450610592754042791e-03
 -8.423442721064666044e-03
 -8.395817764908391698e-03
 -8.368037976717097870e-03
 -8.340412432942903923e-03
 -8.313243430719445895e-03
 -8.286813507708308199e-03
 -8.261374241508535540e-03
 -8.237137716754572639e-03
 -8.214271167849375443e-03
 -8.192894892676036434e-03
 -8.173083163956311459e-03
 -8.154867594814700638e-03
 -8.138242268294512000e-03
 -8.123169912081631971e-03
 -8.109588464635514998e-03
 -8.097417502428249161e-03
 -8.086564146248476082e-03
 -8.076928210177790682e-03
 -8.676409764250415935e-03
 -8.666789255886906546e-03
 -8.655953353479210396e-03
 -8.643802045923139332e-03
 -8.630242613168023075e-03
 -8.615194763619741722e-03
 -8.598596527040014079e-03
 -8.580410667414811038e-03
 -8.560631234980449131e-03
 -8.539289729031063203e-03
 -8.516460219686808678e-03
 -8.492262712064966440e-03
 -8.466864064034856571e-03
 -8.440475914612203048e-03
 -8.413349348718250978e-03
 -8.385766391229731997e-03
 -8.358028834835169729e-03
 -8.330445286040049843e-03
 -8.303317582516846554e-03
 -8.276927832668090623e-03
 -8.251527232031234324e-03
 -8.227327543298820420e-03
 -8.204495747132313499e-03
 -8.183151959001567013e-03
 -8.163370339114118385e-03
 -8.145182452846656818e-03
 -8.128582392445758698e-03
 -8.113532942383799157e-03
 -8.099972135509668145e-03
 -8.087819670537323147e-03
 -8.076982809391997781e-03
 -8.067361518382908103e-03
 -8.665067151507957477e-03
 -8.655461999754705815e-03
 -8.644643394300797340e-03
 -8.632511483758322293e-03
 -8.618973696127440673e-03
 -8.603949868010343782e-03
 -8.587378128093544130e-03
 -8.569221299743105466e-03
 -8.549473442577093171e-03
 -8.528166005402354130e-03
 -8.505372939829643555e-03
 -8.481214059057794186e-03
 -8.455855954200574426e-03
 -8.429509926018792856e-03
 -8.402426658249705776e-03
 -8.374887725280400971e-03
 -8.347194437896523350e-03
 -8.319654909987705960e-03
 -8.292570497594600049e-03
 -8.266222859142358104e-03
 -8.240862789654487472e-03
 -8.216701714327496325e-03
 -8.193906347816398011e-03
 -8.172596614356703384e-03
 -8.152846556191655283e-03
 -8.134687688633318592e-03
 -8.118114113569619913e-03
 -8.103088674983440279e-03
 -8.089549504666997126e-03
 -8.077416429478588566e-03
 -8.066596859296644786e-03
 -8.056990919991941988e-03
 -8.652879609175980966e-03
 -8.643290451254481352e-03
 -8.632489860485701924e-03
 -8.620378151797562088e-03
 -8.606862907403362364e-03
 -8.591864097418097299e-03
 -8.575319953548295529e-03
 -8.557193361009816923e-03
 -8.537478389198957171e-03
 -8.516206434354956639e-03
 -8.493451324667342442e-03
 -8.469332673479700382e-03
 -8.444016794092349537e-03
 -8.417714635005783819e-03
 -8.390676462136714003e-03
 -8.363183380711635556e-03
 -8.335536199619825171e-03
 -8.308042519696547806e-03
 -8.281003195354413524e-03
 -8.254699416350427116e-03
 -8.229381560558265626e-03
 -8.205260701641171189e-03
 -8.182503277188104759e-03
 -8.161229012234556129e-03
 -8.141511826155236817e-03
 -8.123383182093629751e-03
 -8.106837191970375778e-03
 -8.091836761752112597e-03
 -8.078320126272894863e-03
 -8.066207245857680286e-03
 -8.055405684472959071e-03
 -8.045815734187864582e-03
 -8.639850786550195769e-03
 -8.630278192460056480e-03
 -8.619496258374888253e-03
 -8.607405471484240803e-03
 -8.593913573686036075e-03
 -8.578940673367892872e-03
 -8.562425108934889131e-03
 -8.544329829660558817e-03
 -8.524648915065383831e-03
 -8.503413706964287055e-03
 -8.480697905739466649e-03
 -8.456620917769866810e-03
 -8.431348768672101632e-03
 -8.405092042140011391e-03
 -8.378100571409636058e-03
 -8.350654975834700261e-03
 -8.323055544531219804e-03
 -8.295609346994138947e-03
 -8.268616718122987624e-03
 -8.242358362288825652e-03
 -8.217084225320381644e-03
 -8.193005016799922297e-03
 -8.170286887345787688e-03
 -8.149049355676155418e-03
 -8.129366213888976692e-03
 -8.111268871093610042e-03
 -8.094751449589456666e-03
 -8.079776919525910595e-03
 -8.066283622458345764e-03
 -8.054191656928071444e-03
 -8.043408746493110537e-03
 -8.033835355345972720e-03
 -8.625984273184171200e-03
 -8.616428747832208246e-03
 -8.605666039122905966e-03
 -8.593596811743476477e-03
 -8.580128972147648206e-03
 -8.565182771217726143e-03
 -8.548696657297119236e-03
 -8.530633645676688470e-03
 -8.510987826316747037e-03
 -8.489790484956807881e-03
 -8.467115190292707691e-03
 -8.443081135445777707e-03
 -8.417854049598589780e-03
 -8.391644140542558680e-03
 -8.364700795657674381e-03
 -8.337304133632572264e-03
 -8.309753907975113082e-03
 -8.282356640638572839e-03
 -8.255412131167542272e-03
 -8.229200583735218899e-03
 -8.203971498932005960e-03
 -8.179935211134244794e-03
 -8.157257575219492921e-03
 -8.136057897273087786e-03
 -8.116409838219268078e-03
 -8.098344751469189334e-03
 -8.081856770006619339e-03
 -8.066908930120431434e-03
 -8.053439683329440685e-03
 -8.041369270620359055e-03
 -8.030605579999612262e-03
 -8.021049253036456952e-03
 -8.611283598904451164e-03
 -8.601745584235915773e-03
 -8.591002598672963994e-03
 -8.578955488995614054e-03
 -8.565512330472513022e-03
 -8.550593520156031524e-03
 -8.534137619188499752e-03
 -8.516107710584473398e-03
 -8.496497895020452273e-03
 -8.475339400720599201e-03
 -8.452705661296293360e-03
 -8.428715651106257270e-03
 -8.403534795245746689e-03
 -8.377372915891603128e-03
 -8.350478943043417382e-03
 -8.323132481774762892e-03
 -8.295632736122736384e-03
 -8.268285666328483927e-03
 -8.241390522707666560e-03
 -8.215226996263456233e-03
 -8.190044130805004471e-03
 -8.166051875759973780e-03
 -8.143415782579679213e-03
 -8.122254939186975345e-03
 -8.102642871918570508e-03
 -8.084610877029510534e-03
 -8.068153098458081748e-03
 -8.053232640331980594e-03
 -8.039788066990920593e-03
 -8.027739765539242123e-03
 -8.016995792714700156e-03
 -8.007456972057791500e-03
 </DataArray>
 <DataArray Name="pos.y" type="Float32" NumberOfComponents="1" format="ascii">
 5.303324955792575532e-05
 5.294063705965928215e-05
 5.283632445613639677e-05
 5.271934897708885240e-05
 5.258881804095286015e-05
 5.244395871173225440e-05
 5.228417442883289844e-05
 5.210910674251817729e-05
 5.191869838916220235e-05
 5.171325261895305003e-05
 5.149348250153161141e-05
 5.126054331053068699e-05
 5.101604135611619137e-05
 5.076201403884917068e-05
 5.050087848459039794e-05
 5.023534965610237376e-05
 4.996833279878209642e-05
 4.970279873490921304e-05
 4.944165310840135491e-05
 4.918761162194062959e-05
 4.894309238124070057e-05
 4.871013388220583114e-05
 4.849034352238111893e-05
 4.828487755244120999e-05
 4.809444983935054024e-05
 4.791936421807881921e-05
 4.775956379645585244e-05
 4.761469030574266398e-05
 4.748414721223417803e-05
 4.736716149388399600e-05
 4.726284040940031749e-05
 4.717022098834160307e-05
 1.589937593733506730e-04
 1.587156462957795358e-04
 1.584023980922791720e-04
 1.580511235883115767e-04
 1.576591423841861364e-04
 1.572241333725267790e-04
 1.567443050963295231e-04
 1.562185811387143677e-04
 1.556467895362719531e-04
 1.550298409381636368e-04
 1.543698766700043979e-04
 1.536703659839065760e-04
 1.529361325826070575e-04
 1.521732947226874118e-04
 1.513891109671595167e-04
 1.505917342776187109e-04
 1.497898890322111557e-04
 1.489924965380190881e-04
 1.482082823761916174e-04
 1.474454017419764458e-04
 1.467111161562579234e-04
 1.460115471821837678e-04
 1.453515218051554248e-04
 1.447345122266978661e-04
 1.441626621794742373e-04
 1.436368840780479839e-04
 1.431570070805222156e-04
 1.427219553163600399e-04
 1.423299374098688165e-04
 1.419786319940144828e-04
 1.416653581867604098e-04
 1.413872242094762143e-04
 2.647487279515512316e-04
 2.642845078302569510e-04
 2.637616409533341880e-04
 2.631753014390916649e-04
 2.625210152261338737e-04
 2.617949079750619252e-04
 2.609939894260652755e-04
 2.601164628461614774e-04
 2.591620411937935035e-04
 2.581322444976018532e-04
 2.570306470007481135e-04
 2.558630394891164036e-04
 2.546374735656881778e-04
 2.533641616731101840e-04
 2.520552196292153119e-04
 2.507242561647788086e-04
 2.493858338110287111e-04
 2.480548438139312112e-04
 2.467458507241857956e-04
 2.454724670222316481e-04
 2.442468134915401273e-04
 2.430791081256157148e-04
 2.419774080382471157e-04
 2.409475089667593723e-04
 2.399929891954706682e-04
 2.391153717168207119e-04
 2.383143713719600349e-04
 2.375881923455680240e-04
 2.369338445143296052e-04
 2.363474531029114789e-04
 2.358245432403672517e-04
 2.353602880308060979e-04
 3.703108955792777809e-04
 3.696598527928488627e-04
 3.689265612228668969e-04
 3.681042528426494982e-04
 3.671866530343434834e-04
 3.661683282546920860e-04
 3.650450848311634008e-04
 3.638144029436281811e-04
 3.624758800260726994e-04
 3.610316478233444948e-04
 3.594867189976609493e-04
 3.578492147845128025e-04
 3.561304270864309117e-04
 3.543446782621901539e-04
 3.525089600496692324e-04
 3.506423579183126854e-04
 3.487652949961465550e-04
 3.468986554237836581e-04
 3.450628651790106118e-04
 3.432770150222809046e-04
 3.415581036982965842e-04
 3.399204613986905334e-04
 3.383753878024007861e-04
 3.369310111321295641e-04
 3.355923497524941732e-04
 3.343615395910307987e-04
 3.332381807388926261e-04
 3.322197546707279531e-04
 3.313020679069065590e-04
 3.304796862893403034e-04
 3.297463340574964649e-04
 3.290952417540987337e-04
 4.756925979536005323e-04
 4.748539104856695672e-04
 4.739092683673597531e-04
 4.728499528843570438e-04
 4.716678809407815810e-04
 4.703560529309093918e-04
 4.689090664741479559e-04
 4.673236754796844593e-04
 4.655993613447878847e-04
 4.637388702155825337e-04
 4.617486594926074948e-04
 4.596391911030042656e-04
 4.574250114924562570e-04
 4.551245710051286526e-04
 4.527597587399597562e-04
 4.503551609923537192e-04
 4.479370872682056056e-04
 4.455324409713806158e-04
 4.431675353027322698e-04
 4.408669634183405377e-04
 4.386526235023474499e-04
 4.365429760556132819e-04
 4.345525776071499312e-04
 4.326918991443463479e-04
 4.309674054622931170e-04
 4.293818481308732046e-04
 4.279347119930842136e-04
 4.266227526375068247e-04
 4.254405679339940695e-04
 4.243811574793766406e-04
 4.234364366968829899e-04
 4.225976850166076530e-04
 5.809057661691121449e-04
 5.798785083706015087e-04
 5.787214731245679837e-04
 5.774239814084641299e-04