<VTKFile type="UnstructuredGrid" byte_order="BigEndian">
<UnstructuredGrid><Piece NumberOfPoints="660" NumberOfCells="608">
<Points>
 <DataArray type="Float32" NumberOfComponents="3" format="ascii">
 -4.795532207936048508e-03 7.738506887108087540e-03 0.000000000000000000e+00
 -4.787568934261798859e-03 7.716237101703882217e-03 0.000000000000000000e+00
 -4.778897389769554138e-03 7.691985927522182465e-03 0.000000000000000000e+00
 -4.769467748701572418e-03 7.665615528821945190e-03 0.000000000000000000e+00
 -4.759232047945261002e-03 7.636990863829851151e-03 0.000000000000000000e+00
 -4.748146515339612961e-03 7.605988997966051102e-03 0.000000000000000000e+00
 -4.736171569675207138e-03 7.572500966489315033e-03 0.000000000000000000e+00
 -4.723276942968368530e-03 7.536440156400203705e-03 0.000000000000000000e+00
 -4.709441680461168289e-03 7.497749291360378265e-03 0.000000000000000000e+00
 -4.694657865911722183e-03 7.456406019628047943e-03 0.000000000000000000e+00
 -4.678932949900627136e-03 7.412429898977279663e-03 0.000000000000000000e+00
 -4.662289749830961227e-03 7.365887053310871124e-03 0.000000000000000000e+00
 -4.644770175218582153e-03 7.316892966628074646e-03 0.000000000000000000e+00
 -4.626433365046977997e-03 7.265612948685884476e-03 0.000000000000000000e+00
 -4.607354756444692612e-03 7.212258409708738327e-03 0.000000000000000000e+00
 -4.587624687701463699e-03 7.157082669436931610e-03 0.000000000000000000e+00
 -4.567345138639211655e-03 7.100369315594434738e-03 0.000000000000000000e+00
 -4.546624142676591873e-03 7.042422425001859665e-03 0.000000000000000000e+00
 -4.525573924183845520e-03 6.983554456382989883e-03 0.000000000000000000e+00
 -4.504304379224777222e-03 6.924073211848735809e-03 0.000000000000000000e+00
 -4.482919815927743912e-03 6.864270195364952087e-03 0.000000000000000000e+00
 -4.461515229195356369e-03 6.804410833865404129e-03 0.000000000000000000e+00
 -4.440173972398042679e-03 6.744729354977607727e-03 0.000000000000000000e+00
 -4.418967757374048233e-03 6.685423664748668671e-03 0.000000000000000000e+00
 -4.397953394800424576e-03 6.626656744629144669e-03 0.000000000000000000e+00
 -4.377177450805902481e-03 6.568555254489183426e-03 0.000000000000000000e+00
 -4.356674384325742722e-03 6.511217914521694183e-03 0.000000000000000000e+00
 -4.336470272392034531e-03 6.454715970903635025e-03 0.000000000000000000e+00
 -4.316583741456270218e-03 6.399102509021759033e-03 0.000000000000000000e+00
 -4.297028295695781708e-03 6.344414781779050827e-03 0.000000000000000000e+00
 -4.277814179658889771e-03 6.290681194514036179e-03 0.000000000000000000e+00
 -4.258949309587478638e-03 6.237925030291080475e-03 0.000000000000000000e+00
 -4.240441601723432541e-03 6.186166312545537949e-03 0.000000000000000000e+00
 -4.725380335003137589e-03 7.806014735251665115e-03 0.000000000000000000e+00
 -4.717486444860696793e-03 7.783417589962482452e-03 0.000000000000000000e+00
 -4.708893131464719772e-03 7.758820429444313049e-03 0.000000000000000000e+00
 -4.699552897363901138e-03 7.732083555310964584e-03 0.000000000000000000e+00
 -4.689417779445648193e-03 7.703071925789117813e-03 0.000000000000000000e+00
 -4.678444936871528625e-03 7.671661674976348877e-03 0.000000000000000000e+00
 -4.666595254093408585e-03 7.637742906808853149e-03 0.000000000000000000e+00
 -4.653839394450187683e-03 7.601228076964616776e-03 0.000000000000000000e+00
 -4.640155937522649765e-03 7.562059443444013596e-03 0.000000000000000000e+00
 -4.625536967068910599e-03 7.520213723182678223e-03 0.000000000000000000e+00
 -4.609989933669567108e-03 7.475709076970815659e-03 0.000000000000000000e+00
 -4.593536257743835449e-03 7.428611163049936295e-03 0.000000000000000000e+00
 -4.576216917484998703e-03 7.379034534096717834e-03 0.000000000000000000e+00
 -4.558088723570108414e-03 7.327143102884292603e-03 0.000000000000000000e+00
 -4.539225716143846512e-03 7.273147813975811005e-03 0.000000000000000000e+00
 -4.519715905189514160e-03 7.217300590127706528e-03 0.000000000000000000e+00
 -4.499657545238733292e-03 7.159884087741374969e-03 0.000000000000000000e+00
 -4.479157738387584686e-03 7.101202383637428284e-03 0.000000000000000000e+00
 -4.458324518054723740e-03 7.041567005217075348e-03 0.000000000000000000e+00
 -4.437265451997518539e-03 6.981286220252513885e-03 0.000000000000000000e+00
 -4.416082520037889481e-03 6.920650601387023926e-03 0.000000000000000000e+00
 -4.394868854433298111e-03 6.859926506876945496e-03 0.000000000000000000e+00
 -4.373706411570310593e-03 6.799349095672369003e-03 0.000000000000000000e+00
 -4.352665040642023087e-03 6.739117670804262161e-03 0.000000000000000000e+00
 -4.331801552325487137e-03 6.679395679384469986e-03 0.000000000000000000e+00
 -4.311161115765571594e-03 6.620313040912151337e-03 0.000000000000000000e+00
 -4.290779121220111847e-03 6.561969872564077377e-03 0.000000000000000000e+00
 -4.270681645721197128e-03 6.504440214484930038e-03 0.000000000000000000e+00
 -4.250887315720319748e-03 6.447779480367898941e-03 0.000000000000000000e+00
 -4.231411032378673553e-03 6.392028648406267166e-03 0.000000000000000000e+00
 -4.212263505905866623e-03 6.337218917906284332e-03 0.000000000000000000e+00
 -4.193454049527645111e-03 6.283376831561326981e-03 0.000000000000000000e+00
 -4.174991045147180557e-03 6.230525672435760498e-03 0.000000000000000000e+00
 -4.654610995203256607e-03 7.872862741351127625e-03 0.000000000000000000e+00
 -4.646788351237773895e-03 7.849937304854393005e-03 0.000000000000000000e+00
 -4.638276528567075729e-03 7.824993692338466644e-03 0.000000000000000000e+00
 -4.629027564078569412e-03 7.797890808433294296e-03 0.000000000000000000e+00
 -4.618995822966098785e-03 7.768492680042982101e-03 0.000000000000000000e+00
 -4.608137998729944229e-03 7.736674975603818893e-03 0.000000000000000000e+00
 -4.596416838467121124e-03 7.702326867729425430e-03 0.000000000000000000e+00
 -4.583802539855241776e-03 7.665359880775213242e-03 0.000000000000000000e+00
 -4.570274148136377335e-03 7.625715807080268860e-03 0.000000000000000000e+00
 -4.555823747068643570e-03 7.583369500935077667e-03 0.000000000000000000e+00
 -4.540457855910062790e-03 7.538339588791131973e-03 0.000000000000000000e+00
 -4.524197429418563843e-03 7.490689866244792938e-03 0.000000000000000000e+00
 -4.507082048803567886e-03 7.440533954650163651e-03 0.000000000000000000e+00
 -4.489167127758264542e-03 7.388034369796514511e-03 0.000000000000000000e+00
 -4.470523912459611893e-03 7.333402056246995926e-03 0.000000000000000000e+00
 -4.451238550245761871e-03 7.276886142790317535e-03 0.000000000000000000e+00
 -4.431406501680612564e-03 7.218769751489162445e-03 0.000000000000000000e+00
 -4.411132074892520905e-03 7.159356027841567993e-03 0.000000000000000000e+00
 -4.390520974993705750e-03 7.098955567926168442e-03 0.000000000000000000e+00
 -4.369677975773811340e-03 7.037875708192586899e-03 0.000000000000000000e+00
 -4.348702263087034225e-03 6.976408418267965317e-03 0.000000000000000000e+00
 -4.327685572206974030e-03 6.914819590747356415e-03 0.000000000000000000e+00
 -4.306707996875047684e-03 6.853344850242137909e-03 0.000000000000000000e+00
 -4.285837523639202118e-03 6.792184896767139435e-03 0.000000000000000000e+00
 -4.265130963176488876e-03 6.731504574418067932e-03 0.000000000000000000e+00
 -4.244633018970489502e-03 6.671436131000518799e-03 0.000000000000000000e+00
 -4.224378615617752075e-03 6.612081546336412430e-03 0.000000000000000000e+00
 -4.204393830150365829e-03 6.553517654538154602e-03 0.000000000000000000e+00
 -4.184699151664972305e-03 6.495802197605371475e-03 0.000000000000000000e+00
 -4.165308550000190735e-03 6.438979879021644592e-03 0.000000000000000000e+00
 -4.146235063672065735e-03 6.383084692060947418e-03 0.000000000000000000e+00
 -4.127487540245056152e-03 6.328146439045667648e-03 0.000000000000000000e+00
 -4.109076224267482758e-03 6.274192593991756439e-03 0.000000000000000000e+00
 -4.583229776471853256e-03 7.939034141600131989e-03 0.000000000000000000e+00
 -4.575480706989765167e-03 7.915781810879707336e-03 0.000000000000000000e+00
 -4.567051772028207779e-03 7.890491746366024017e-03 0.000000000000000000e+00
 -4.557897336781024933e-03 7.863022387027740479e-03 0.000000000000000000e+00
 -4.547971300780773163e-03 7.833238691091537476e-03 0.000000000000000000e+00
 -4.537231754511594772e-03 7.801014930009841919e-03 0.000000000000000000e+00
 -4.525641910731792450e-03 7.766238879412412643e-03 0.000000000000000000e+00
 -4.513171967118978500e-03 7.728822063654661179e-03 0.000000000000000000e+00
 -4.499801900237798691e-03 7.688704412430524826e-03 0.000000000000000000e+00
 -4.485523328185081482e-03 7.645861245691776276e-03 0.000000000000000000e+00
 -4.470342304557561874e-03 7.600308861583471298e-03 0.000000000000000000e+00
 -4.454278852790594101e-03 7.552110590040683746e-03 0.000000000000000000e+00
 -4.437371622771024704e-03 7.501378655433654785e-03 0.000000000000000000e+00
 -4.419673699885606766e-03 7.448275573551654816e-03 0.000000000000000000e+00
 -4.401254933327436447e-03 7.393009029328823090e-03 0.000000000000000000e+00
 -4.382198210805654526e-03 7.335828617215156555e-03 0.000000000000000000e+00
 -4.362597595900297165e-03 7.277016062289476395e-03 0.000000000000000000e+00
 -4.342553671449422836e-03 7.216873113065958023e-03 0.000000000000000000e+00
 -4.322169814258813858e-03 7.155709899961948395e-03 0.000000000000000000e+00
 -4.301548004150390625e-03 7.093833293765783310e-03 0.000000000000000000e+00
 -4.280785564333200455e-03 7.031534332782030106e-03 0.000000000000000000e+00
 -4.259971436113119125e-03 6.969080772250890732e-03 0.000000000000000000e+00
 -4.239184316247701645e-03 6.906707771122455597e-03 0.000000000000000000e+00
 -4.218491259962320328e-03 6.844617426395416260e-03 0.000000000000000000e+00
 -4.197947680950164795e-03 6.782975979149341583e-03 0.000000000000000000e+00
 -4.177598748356103897e-03 6.721917539834976196e-03 0.000000000000000000e+00
 -4.157478455454111099e-03 6.661545950919389725e-03 0.000000000000000000e+00
 -4.137613810598850250e-03 6.601941306143999100e-03 0.000000000000000000e+00
[...]
<CellData>
 <DataArray Name="pos.x" type="Float32" NumberOfComponents="1" format="ascii">
 -4.756442626768023381e-03
 -4.748164640123251311e-03
 -4.739158429082383599e-03
 -4.729375663589686744e-03
 -4.718770616982942770e-03
 -4.707302041261083106e-03
 -4.694935314313444970e-03
 -4.681644779171752722e-03
 -4.667416145710223153e-03
 -4.652248774649761325e-03
 -4.636157621405847910e-03
 -4.619174594721198700e-03
 -4.601349093876844036e-03
 -4.582747537113380544e-03
 -4.563451784359236901e-03
 -4.543556481292863013e-03
 -4.523165490699932942e-03
 -4.502387705301372049e-03
 -4.481332626879234483e-03
 -4.460106129248509604e-03
 -4.438806789836166090e-03
 -4.417523083930385668e-03
 -4.396331607462989483e-03
 -4.375296355379776694e-03
 -4.354468959040054196e-03
 -4.333889696176649806e-03
 -4.313589038910985163e-03
 -4.293589497526620162e-03
 -4.273907541516745907e-03
 -4.254555423079755400e-03
 -4.235542780136069586e-03
 -4.216877946833823970e-03
 -4.686016977715262363e-03
 -4.677814053459412869e-03
 -4.668893044490115933e-03
 -4.659206478589818755e-03
 -4.648709422389578176e-03
 -4.637361311300603785e-03
 -4.625128044735362168e-03
 -4.611984268771711880e-03
 -4.597915720061893953e-03
 -4.582921455539284462e-03
 -4.567015751241839359e-03
 -4.550229431556322181e-03
 -4.532610398786221344e-03
 -4.514223180486214015e-03
 -4.495147400087750808e-03
 -4.475475196997764915e-03
 -4.455307757639181791e-03
 -4.434751243735001597e-03
 -4.413912492406713364e-03
 -4.392894894510393326e-03
 -4.371794825709713304e-03
 -4.350698916464734028e-03
 -4.329682322296509421e-03
 -4.308808020536523779e-03
 -4.288127039431297721e-03
 -4.267679437952997569e-03
 -4.247495807938422331e-03
 -4.227599062626842367e-03
 -4.208006298915808151e-03
 -4.188730563205097894e-03
 -4.169782401295094726e-03
 -4.151171122410679190e-03
 -4.614977789521764948e-03
 -4.606852177053691842e-03
 -4.598018753661126286e-03
 -4.588430910512968953e-03
 -4.578044513108420199e-03
 -4.566819685873172233e-03
 -4.554722855375559210e-03
 -4.541728976405702903e-03
 -4.527823818091187072e-03
 -4.513006139292675446e-03
 -4.497289542370361097e-03
 -4.480703772980456495e-03
 -4.463295241905284802e-03
 -4.445126591169804714e-03
 -4.426275212385572151e-03
 -4.406830742677117323e-03
 -4.386891695159338481e-03
 -4.366561502419694096e-03
 -4.345944337330247091e-03
 -4.325141106510576629e-03
 -4.304245980691678852e-03
 -4.283343740299391453e-03
 -4.262508093113695495e-03
 -4.241800989377510038e-03
 -4.221272842651098943e-03
 -4.200963479578959277e-03
 -4.180903596304759613e-03
 -4.161116491971928767e-03
 -4.141619872411278665e-03
 -4.122427558582621686e-03
 -4.103550983615865920e-03
 -4.085000410619245292e-03
 -4.543330526914360172e-03
 -4.535284501126404799e-03
 -4.526541071521686388e-03
 -4.517054497995004123e-03
 -4.506781450303921389e-03
 -4.495682747351634548e-03
 -4.483725348423983278e-03
 -4.470884522706534796e-03
 -4.457146077631248156e-03
 -4.442508479966693520e-03
 -4.426984664512744437e-03
 -4.410603304401753723e-03
 -4.393409325097512308e-03
 -4.375463489146250856e-03
 -4.356840962046177809e-03
 -4.337628883745545984e-03
 -4.317923098271896250e-03
 -4.297824312096738646e-03
 -4.277434035347867959e-03
 -4.256850690107415180e-03
 -4.236166239823441031e-03
 -4.215463610301176806e-03
 -4.194815054652210884e-03
 -4.174281486735147151e-03
 -4.153912693808469066e-03
 -4.133748256372853092e-03
 -4.113818959040412178e-03
 -4.094148469218711339e-03
 -4.074755082487023505e-03
 -4.055653373912087266e-03
 -4.036855642521589536e-03
 -4.018373083191134100e-03
 -4.471080730492251430e-03
 -4.463116591336877513e-03
 -4.454465587918844151e-03
 -4.445082853977403055e-03
 -4.434925868728485134e-03
 -4.423956150871893693e-03
 -4.412141197894084432e-03
 -4.399456599076335787e-03
 -4.385888206114491039e-03
 -4.371434199935487000e-03
 -4.356106854324436929e-03
 -4.339933776689395770e-03
 -4.322958414138691231e-03
 -4.305239656712651908e-03
 -4.286850450551308103e-03
 -4.267875444680700216e-03
 -4.248407819454310015e-03
 -4.228545559434907473e-03
 -4.208387514634032503e-03
 -4.188029623301009127e-03
 -4.167561640088025300e-03
 -4.147064632234302023e-03
 -4.126609391673540655e-03
 -4.106255786771089746e-03
 -4.086052966831127918e-03
 -4.066040252146353208e-03
 -4.046248499522797810e-03
 -4.026701726397734216e-03
 -4.007418798190470755e-03
 -3.988415022798485685e-03
 -3.969703542821882702e-03
 -3.951296461849287088e-03
 -4.398234016722578181e-03
 -4.390354088767173257e-03
 -4.381797967590391266e-03
 -4.372521665667365720e-03
 -4.362483476672208114e-03
 -4.351645624268814065e-03
 -4.339976149547826977e-03
 -4.327450967598213405e-03
 -4.314055980472217972e-03
 -4.299789089779935264e-03
 -4.284661915270810903e-03
 -4.268701006034901491e-03
 -4.251948338567823268e-03
 -4.234460938314791104e-03
 -4.216309539888917976e-03
 -4.197576308822227077e-03
 -4.178351768431102023e-03
 -4.158731186791672120e-03
 -4.138810757578769393e-03
 -4.118683936943786164e-03
 -4.098438270093789602e-03
 -4.078152962413770892e-03
 -4.057897338582141904e-03
 -4.037730212559928651e-03
 -4.017700084010075723e-03
 -3.997845998705840120e-03
 -3.978198868933679848e-03
 -3.958783043324975125e-03
 -3.939617936496299204e-03
 -3.920719567065205149e-03
 -3.902101897972854762e-03
 -3.883777917514110410e-03
 -4.324796077934807588e-03
 -4.317002709906024062e-03
 -4.308543950137709577e-03
 -4.299376694496456590e-03
 -4.289460055909704965e-03
 -4.278756968013285727e-03
 -4.267236020819848222e-03
 -4.254873460949621516e-03
 -4.241655247035746451e-03
 -4.227579008175029636e-03
 -4.212655717502700528e-03
 -4.196910873816049777e-03
 -4.180384991535193891e-03
 -4.163133240381549152e-03
 -4.145224152373221116e-03
 -4.126737418176002620e-03
 -4.107760911957715304e-03
 -4.088387191976015564e-03
 -4.068709800527478722e-03
 -4.048819714456745010e-03
 -4.028802269761625095e-03
 -4.008734807361932426e-03
 -3.988685179049564732e-03
 -3.968711135675552157e-03
 -3.948860515546172810e-03
 -3.929172075356954057e-03
 -3.909676765718781734e-03
 -3.890399247012543346e-03
 -3.871359461666799839e-03
 -3.852574116063248091e-03
 -3.834057969332222652e-03
 -3.815824869504357182e-03
 -4.250772682315859079e-03
 -4.243068246632278849e-03
 -4.234709349997777851e-03
 -4.225653776083623803e-03
 -4.215861461648681523e-03
 -4.205296055148474189e-03
 -4.193926700742819404e-03
 -4.181729982314887767e-03
 -4.168691921437654886e-03
 -4.154809881779609158e-03
 -4.140094197734095136e-03
 -4.124569326461062849e-03
 -4.108274329654233031e-03
 -4.091262531163051934e-03
 -4.073600270466309209e-03
 -4.055364773218664981e-03
 -4.036641273608218214e-03
 -4.017519628015872590e-03
 -3.998090733524956204e-03
 -3.978443091547574119e-03
 -3.958659830015201324e-03
 -3.938816423467853163e-03
 -3.918979245637927052e-03
 -3.899204975777459999e-03
 -3.879540779097669524e-03
 -3.860025108409087698e-03
 -3.840688935045938768e-03
 -3.821557211079136974e-03
 -3.802650384612543070e-03
 -3.783985825977504835e-03
 -3.765579065412268285e-03
 -3.747444784732588321e-03
 -4.176169673905447480e-03
 -4.168556566197537984e-03
 -4.160300056414113420e-03
 -4.151358820191866639e-03
 -4.141693622479392795e-03
 -4.131268831226402385e-03
 -4.120054149871399743e-03
 -4.108026505299245887e-03
 -4.095171988513621533e-03
 -4.081487705126535248e-03
 -4.066983359120175147e-03
 -4.051682375314741118e-03
 -4.035622372854226654e-03
 -4.018854840569432291e-03
 -4.001443936602087914e-03
 -3.983464432705721009e-03
 -3.964998933564430582e-03
 -3.946134602926525993e-03
 -3.926959700062382895e-03
 -3.907560255931915444e-03
 -3.888017192474527324e-03
 -3.868404116648169622e-03
 -3.848785919428407507e-03
 -3.829218200202820152e-03
 -3.809747439329366769e-03
 -3.790411770681101876e-03
 -3.771242168264794196e-03
 -3.752263855160856230e-03
 -3.733497762249790748e-03
 -3.714961899132301296e-03
 -3.696672541128060568e-03
 -3.678645176897392052e-03
 -4.100992972590498074e-03
 -4.093473611209836466e-03
 -4.085322033409593406e-03
 -4.076497810690385588e-03
 -4.066962540321508376e-03
 -4.056681314244573421e-03
 -4.045624400208895806e-03
 -4.033769073842073498e-03
 -4.021101502204445580e-03
 -4.007618540513511671e-03
 -3.993329271136422665e-03
 -3.978256096505515711e-03
 -3.962435204235568824e-03
 -3.945916260012105430e-03
 -3.928761253014078671e-03
 -3.911042513482329563e-03
 -3.892840028409073547e-03
 -3.874238279484319269e-03
 -3.855322896826515397e-03
 -3.836177447058616765e-03
 -3.816880649151928751e-03
 -3.797504242013780267e-03
 -3.778111629651626207e-03
 -3.758757323557692948e-03
 -3.739487107464503114e-03
 -3.720338781008676685e-03
 -3.701343302366381666e-03
 -3.682526144319804573e-03
 -3.663908696858464171e-03
 -3.645509583292737797e-03
 -3.627345797043002047e-03
 -3.609433605669393978e-03
 -4.025248574100965052e-03
 -4.017825399618295094e-03
 -4.009781319756099659e-03
 -4.001076805513969874e-03
 -3.991674290373063011e-03
 -3.981539594583367002e-03
 -3.970643555131720369e-03
 -3.958963802130968657e-03
 -3.946486585460037139e-03
 -3.933208517895489184e-03
 -3.919138069459606431e-03
 -3.904296630814502872e-03
 -3.888718969925787031e-03
 -3.872452942247606080e-03
 -3.855558381563514974e-03
 -3.838105190296352970e-03
 -3.820170750920920833e-03
 -3.801836875001314738e-03
 -3.783186573454497444e-03
 -3.764300955836974178e-03
 -3.745256542152296340e-03
 -3.726123203536731762e-03
 -3.706962853320368637e-03
 -3.687828907312374303e-03
 -3.668766440837790705e-03
 -3.649812903752159155e-03
 -3.630999219443684783e-03
 -3.612351088454248890e-03
 -3.593890335437332183e-03
 -3.575636170965028685e-03
 -3.557606278610635480e-03
 -3.539817675873801160e-03
 -3.948942550004441721e-03
 -3.941618024693678557e-03
 -3.933684028948363463e-03
 -3.925101936622251396e-03
 -3.915835021058767899e-03
 -3.905849834942071511e-03
 -3.895117789315344879e-03
 -3.883616874517797479e-03
 -3.871333430142035945e-03
 -3.858263834776421396e-03
 -3.844415955848968017e-03
 -3.829810183545946569e-03
 -3.814479878938282359e-03
 -3.798471101222610467e-03
 -3.781841543571400326e-03
 -3.764658695614686666e-03
 -3.746997349873974151e-03
 -3.728936661105220884e-03
 -3.710557032289001512e-03
 -3.691937124369328808e-03
 -3.673151263375933843e-03
 -3.654267453722248680e-03
 -3.635346114866374028e-03
 -3.616439559399034411e-03
 -3.597592142450411860e-03
 -3.578840948306807445e-03
 -3.560216846152149811e-03
 -3.541745741707659056e-03
 -3.523449869058949916e-03
 -3.505348998694098051e-03
 -3.487461475413267641e-03
 -3.469805036667992278e-03
 -3.872081047700661870e-03
 -3.864857655014316846e-03
 -3.857036349173662958e-03
 -3.848579409960357304e-03
 -3.839450953978037085e-03
 -3.829618270276869373e-03
 -3.819053348660044183e-03
 -3.807734545431925004e-03
 -3.795648296928941061e-03
 -3.782790756104226389e-03
 -3.769169198029612838e-03
 -3.754803024398895798e-03
 -3.739724203032504263e-03
 -3.723977011922277244e-03
 -3.707617019652705535e-03
 -3.690709319442102895e-03
 -3.673326129838984377e-03
 -3.655543963521376213e-03
 -3.637440628139451942e-03
 -3.619092345685005763e-03
 -3.600571254224841158e-03
 -3.581943493283214382e-03
 -3.563267985779400120e-03
 -3.544595933811400812e-03
 -3.525970960528014130e-03
 -3.507429768613729796e-03
 -3.489003153171944815e-03
 -3.470717201877707159e-03
 -3.452594532223574476e-03
 -3.434655446359318430e-03
 -3.416918920397818416e-03
 -3.399403380714856402e-03
 -3.794670290417705063e-03
 -3.787550534447246646e-03
 -3.779844543283828167e-03
 -3.771515505417747174e-03
 -3.762528383853537724e-03
 -3.752851207736998800e-03
 -3.742456550217834309e-03
 -3.731323139296799287e-03
 -3.719437515220829459e-03
 -3.706795614164270364e-03
 -3.693404129576314480e-03
 -3.679281487340485199e-03
 -3.664458276576007967e-03
 -3.648977010219859110e-03
 -3.632891149553066617e-03
 -3.616263409143147083e-03
 -3.599163450988528482e-03
 -3.581665161858186078e-03
 -3.563843768045422099e-03
 -3.545773063479613386e-03
 -3.527523005313647382e-03
 -3.509157870818417103e-03
 -3.490735084249217430e-03
 -3.472304730208011087e-03
 -3.453909688080054538e-03
 -3.435586262672850073e-03
 -3.417365154670335900e-03
 -3.399272609825884726e-03
 -3.381331602211752260e-03
 -3.363562936468414161e-03
 -3.345986189107944594e-03
 -3.328620443352442448e-03
 -3.716716577205588564e-03
 -3.709702982132551986e-03
 -3.702114948766670535e-03
 -3.693916576788935837e-03
 -3.685073678479663158e-03
 -3.675555026602927815e-03
 -3.665333782118175131e-03
 -3.654389050446055394e-03
 -3.642707483045284564e-03
 -3.630284808475675844e-03
 -3.617127149799384198e-03
 -3.603251970481437857e-03
 -3.588688496408873243e-03
 -3.573477492729514992e-03
 -3.557670331988215754e-03
 -3.541327369266998419e-03
 -3.524515728905345136e-03
 -3.507306689396907581e-03
 -3.489772911043796753e-03
 -3.471985771857193526e-03
 -3.454013056182625527e-03
 -3.435917182493860439e-03
 -3.417754074811676663e-03
 -3.399572693517846026e-03
 -3.381415162461903334e-03
 -3.363317372057883850e-03
 -3.345309907765731377e-03
 -3.327419148886365773e-03
 -3.309668398436538088e-03
 -3.292078933449495582e-03
 -3.274670898913656543e-03
 -3.257464001758302117e-03
 -3.638226282932320848e-03
 -3.631321392465758097e-03
 -3.623853977716959274e-03
 -3.615789051732227772e-03
 -3.607093278670706754e-03
 -3.597736178223214214e-03
 -3.587691503495379127e-03
 -3.576938743039585582e-03
 -3.565464666963572872e-03
 -3.553264805688061828e-03
 -3.540344723631210899e-03
 -3.526720935952441533e-03
 -3.512421321709611587e-03
 -3.497484916661003536e-03
 -3.481961024486092838e-03
 -3.465907661375624681e-03
 -3.449389434393937675e-03
 -3.432475032884230864e-03
 -3.415234567940393564e-03
 -3.397737015076076738e-03
 -3.380047995015688072e-03
 -3.362228071728336036e-03
 -3.344331667997556008e-03
 -3.326406613549194591e-03
 -3.308494264939480876e-03
 -3.290630081432226531e-03
 -3.272844511991841732e-03
 -3.255164044276261971e-03
 -3.237612281794828312e-03
 -3.220210942941319904e-03
 -3.202980708238190987e-03
 -3.185941874110997853e-03
 -3.559205858278107187e-03
 -3.552412235081030181e-03
 -3.545068116807921152e-03
 -3.537139431730220926e-03
 -3.528593698209458573e-03
 -3.519401185952530410e-03
 -3.509536244415262067e-03
 -3.498978750980694975e-03
 -3.487715601978509748e-03
 -3.475742139478538075e-03
 -3.463063381514277367e-03
 -3.449694909782783508e-03
 -3.435663273863483799e-03
 -3.421005799676646916e-03
 -3.405769743231960682e-03
 -3.390010803874347022e-03
 -3.373791093295493409e-03
 -3.357176732328419604e-03
 -3.340235301084077801e-03
 -3.323033387299304149e-03
 -3.305634458361664599e-03
 -3.288097228882032493e-03
 -3.270474619984668849e-03
 -3.252813324600916257e-03
 -3.235153920256312286e-03
 -3.217531418067968302e-03
 -3.199976108764407412e-03
 -3.182514562505130585e-03
 -3.165170654017980967e-03
 -3.147966511081452205e-03
 -3.130923315781452068e-03
 -3.114061918746813002e-03
 -3.479661829730873630e-03
 -3.472982054834078576e-03
 -3.465763927261984387e-03
 -3.457974292048864202e-03
 -3.449581523795640283e-03
 -3.440556645088930186e-03
 -3.430874605803034029e-03
 -3.420515677834080372e-03
 -3.409466891441955295e-03
 -3.397723410451142755e-03
 -3.385289719291100733e-03
 -3.372180481780382311e-03
 -3.358420936332928274e-03
 -3.344046719751129181e-03
 -3.329103062916209926e-03
 -3.313643371846587173e-03
 -3.297727286306430250e-03
 -3.281418380799998660e-03
 -3.264781724146256867e-03
 -3.247881532348046493e-03
 -3.230779130859424021e-03
 -3.213531390949504914e-03
 -3.196189732254170815e-03
 -3.178799705078195863e-03
 -3.161401096203084442e-03
 -3.144028451366108218e-03
 -3.126711880847796079e-03
 -3.109478010785586121e-03
 -3.092350957022376064e-03
 -3.075353223794114604e-03
 -3.058506459741817431e-03
 -3.041832033312960419e-03
 -3.399600799580699412e-03
 -3.393037471785145028e-03
 -3.385948044822353030e-03
 -3.378300281697351956e-03
 -3.370063414994670103e-03
 -3.361209222812482425e-03
 -3.351713259371029950e-03
 -3.341556196743301638e-03
 -3.330725206963650736e-03
 -3.319215286036476115e-03
 -3.307030398094809587e-03
 -3.294184305413901115e-03
 -3.280700954530061005e-03
 -3.266614315033978221e-03
 -3.251967616584862299e-03
 -3.236811996891067120e-03
 -3.221204648800496916e-03
 -3.205206624235260211e-03
 -3.188880501903104854e-03
 -3.172288143459856945e-03
 -3.155488744967513588e-03
 -3.138537341255959959e-03
 -3.121483851249830157e-03
 -3.104372677109986343e-03
 -3.087242803190395728e-03
 -3.070128292378860365e-03
 -3.053059051824322506e-03
 -3.036061736444553398e-03
 -3.019160672258969311e-03
 -3.002378706075339680e-03
 -2.985737917034398965e-03
 -2.969260153917065333e-03
 </DataArray>
 <DataArray Name="pos.y" type="Float32" NumberOfComponents="1" format="ascii">
 7.761096538653894372e-03
 7.737666018434390981e-03
 7.712175535404458548e-03
 7.684488449428690179e-03
 7.654475487957782681e-03
 7.622020049962690419e-03
 7.587024279167175859e-03
 7.549415680454924470e-03
 7.509153912869284686e-03
 7.466237249565295213e-03
 7.420708075313547751e-03
 7.372656728225659463e-03
 7.322223017397820263e-03
 7.269594886346922823e-03
 7.215003948092791990e-03
 7.158717968401758294e-03
 7.101030766865000683e-03
 7.042250368324005742e-03
 6.982686493730821085e-03
 6.922638572176324605e-03
 6.862385363081307567e-03
 6.802177020868179977e-03
 6.742230071548342869e-03
 6.682725377674003653e-03
 6.623808818064275301e-03
 6.565594154045680843e-03
 6.508167417865059860e-03
 6.451592136856216381e-03
 6.395914774462589485e-03
 6.341169893004900728e-03
 6.287384690268294808e-03
 6.234582706291837313e-03
 7.828109977193131730e-03
 7.804342484431761769e-03
 7.778495648768943803e-03
 7.750432082640392600e-03
 7.720021753689622519e-03
 7.687147282850378613e-03
 7.651710010585573152e-03
 7.613636605870947177e-03
 7.572885852457282400e-03
 7.529455104305596280e-03
 7.483385782658147876e-03
 7.434767223437111806e-03
 7.383738208556611150e-03
 7.330485652424376976e-03
 7.275240170035649281e-03
 7.218268602554391705e-03
 7.159863968161794476e-03
 7.100333667592917918e-03
 7.039987029514501241e-03
 6.979123373224426462e-03
 6.918021673694767400e-03
 6.856932658126226737e-03
 6.796073801472513921e-03
 6.735627296712422100e-03
 6.675740726802791881e-03
 6.616529911484319779e-03
 6.558083266616321176e-03
 6.500466991832180505e-03
 6.443730469801176204e-03
 6.387911383919983935e-03
 6.333040208133138178e-03
 6.279143866573611531e-03
 7.894455123300768776e-03
 7.870350551306743228e-03
 7.844147546582469488e-03
 7.815708009099184284e-03
 7.784901178235348676e-03
 7.751608922624291312e-03
 7.715731796675266534e-03
 7.677195639163464716e-03
 7.635958349733383728e-03
 7.592016337001538696e-03
 7.545410012893885403e-03
 7.496227644290304540e-03
 7.444606897769209114e-03
 7.390733550412916658e-03
 7.334837093727519970e-03
 7.277183305933404046e-03
 7.218064258233304262e-03
 7.157786580970156715e-03
 7.096659070315581436e-03
 7.034980808102849099e-03
 6.973030875286768265e-03
 6.911060484607864374e-03
 6.849287997691389483e-03
 6.787896901638399219e-03
 6.727036472688990854e-03
 6.666824601838358677e-03
 6.607352122412125939e-03
 6.548687957978757170e-03
 6.490884476369099265e-03
 6.433982558832189273e-03
 6.378016039842519282e-03
 6.323015316673445685e-03
 7.960116832052702499e-03
 7.935675230347095238e-03
 7.909116410395645308e-03
 7.880301595622345862e-03
 7.849099329573637485e-03
 7.815390755126171846e-03
 7.779075658513207384e-03
 7.740079054505371974e-03
 7.698357950088449177e-03
 7.653907782365826362e-03
 7.606767907829512475e-03
 7.557025456786923591e-03
 7.504816891305643965e-03
 7.450326741552608552e-03
 7.393783248407223736e-03
 7.335450986869587221e-03
 7.275620933483969814e-03
 7.214598799706325484e-03
 7.152692706789017495e-03
 7.090201369298000135e-03
 7.027403862629062574e-03
 6.964551796063374323e-03
 6.901864354117183235e-03
 6.839526280463092273e-03
 6.777688532786940896e-03
 6.716471085429932993e-03
 6.655967222500172413e-03
 6.596248642765681694e-03
 6.537370764911946963e-03
 6.479377744667147963e-03
 6.422306861311000842e-03
 6.366192074242822511e-03
 8.025079732436725052e-03
 8.000301311067924484e-03