<VTKFile type="UnstructuredGrid" byte_order="BigEndian">
<UnstructuredGrid><Piece NumberOfPoints="627" NumberOfCells="576">
<Points>
 <DataArray type="Float32" NumberOfComponents="3" format="ascii">
 -7.606314029544591904e-03 3.265978768467903137e-03 0.000000000000000000e+00
 -7.597024552524089813e-03 3.258903976529836655e-03 0.000000000000000000e+00
 -7.586681284010410309e-03 3.251026850193738937e-03 0.000000000000000000e+00
 -7.575198076665401459e-03 3.242281498387455940e-03 0.000000000000000000e+00
 -7.562491111457347870e-03 3.232604125514626503e-03 0.000000000000000000e+00
 -7.548485416918992996e-03 3.221937688067555428e-03 0.000000000000000000e+00
 -7.533117663115262985e-03 3.210233990103006363e-03 0.000000000000000000e+00
 -7.516341749578714371e-03 3.197457408532500267e-03 0.000000000000000000e+00
 -7.498132996261119843e-03 3.183590248227119446e-03 0.000000000000000000e+00
 -7.478495594114065170e-03 3.168634837493300438e-03 0.000000000000000000e+00
 -7.457465399056673050e-03 3.152618417516350746e-03 0.000000000000000000e+00
 -7.435113191604614258e-03 3.135595703497529030e-03 0.000000000000000000e+00
 -7.411548867821693420e-03 3.117649583145976067e-03 0.000000000000000000e+00
 -7.386919111013412476e-03 3.098891815170645714e-03 0.000000000000000000e+00
 -7.361404132097959518e-03 3.079460235312581062e-03 0.000000000000000000e+00
 -7.335214875638484955e-03 3.059515031054615974e-03 0.000000000000000000e+00
 -7.308583240956068039e-03 3.039232920855283737e-03 0.000000000000000000e+00
 -7.281752768903970718e-03 3.018799237906932831e-03 0.000000000000000000e+00
 -7.254967931658029556e-03 2.998400479555130005e-03 0.000000000000000000e+00
 -7.228464819490909576e-03 2.978216158226132393e-03 0.000000000000000000e+00
 -7.202459499239921570e-03 2.958411118015646935e-03 0.000000000000000000e+00
 -7.177142426371574402e-03 2.939130179584026337e-03 0.000000000000000000e+00
 -7.152670994400978088e-03 2.920493017882108688e-03 0.000000000000000000e+00
 -7.129167206585407257e-03 2.902593230828642845e-03 0.000000000000000000e+00
 -7.106719072908163071e-03 2.885497175157070160e-03 0.000000000000000000e+00
 -7.085379213094711304e-03 2.869245130568742752e-03 0.000000000000000000e+00
 -7.065170444548130035e-03 2.853854559361934662e-03 0.000000000000000000e+00
 -7.046089973300695419e-03 2.839323133230209351e-03 0.000000000000000000e+00
 -7.028113584965467453e-03 2.825632691383361816e-03 0.000000000000000000e+00
 -7.011202163994312286e-03 2.812753431499004364e-03 0.000000000000000000e+00
 -6.995304487645626068e-03 2.800646005198359489e-03 0.000000000000000000e+00
 -6.980362813919782639e-03 2.789266640320420265e-03 0.000000000000000000e+00
 -6.966315675526857376e-03 2.778568770736455917e-03 0.000000000000000000e+00
 -7.577026728540658951e-03 3.353413427248597145e-03 0.000000000000000000e+00
 -7.567733526229858398e-03 3.346134675666689873e-03 0.000000000000000000e+00
 -7.557390257716178894e-03 3.338033799082040787e-03 0.000000000000000000e+00
 -7.545910775661468506e-03 3.329043043777346611e-03 0.000000000000000000e+00
 -7.533212192356586456e-03 3.319097450003027916e-03 0.000000000000000000e+00
 -7.519220001995563507e-03 3.308138577267527580e-03 0.000000000000000000e+00
 -7.503870874643325806e-03 3.296116832643747330e-03 0.000000000000000000e+00
 -7.487118244171142578e-03 3.282996127381920815e-03 0.000000000000000000e+00
 -7.468938827514648438e-03 3.268757835030555725e-03 0.000000000000000000e+00
 -7.449335884302854538e-03 3.253404516726732254e-03 0.000000000000000000e+00
 -7.428344339132308960e-03 3.236963879317045212e-03 0.000000000000000000e+00
 -7.406035438179969788e-03 3.219491103664040565e-03 0.000000000000000000e+00
 -7.382516749203205109e-03 3.201071172952651978e-03 0.000000000000000000e+00
 -7.357934024184942245e-03 3.181817708536982536e-03 0.000000000000000000e+00
 -7.332466542720794678e-03 3.161871340125799179e-03 0.000000000000000000e+00
 -7.306322455406188965e-03 3.141395282000303268e-03 0.000000000000000000e+00
 -7.279732730239629745e-03 3.120569745078682899e-03 0.000000000000000000e+00
 -7.252938114106655121e-03 3.099584020674228668e-03 0.000000000000000000e+00
 -7.226182147860527039e-03 3.078628331422805786e-03 0.000000000000000000e+00
 -7.199697662144899368e-03 3.057885682210326195e-03 0.000000000000000000e+00
 -7.173700723797082901e-03 3.037524642422795296e-03 0.000000000000000000e+00
 -7.148379925638437271e-03 3.017692826688289642e-03 0.000000000000000000e+00
 -7.123890798538923264e-03 2.998512936756014824e-03 0.000000000000000000e+00
 -7.100356277078390121e-03 2.980080200359225273e-03 0.000000000000000000e+00
 -7.077862042933702469e-03 2.962462836876511574e-03 0.000000000000000000e+00
 -7.056462578475475311e-03 2.945702290162444115e-03 0.000000000000000000e+00
 -7.036180235445499420e-03 2.929816953837871552e-03 0.000000000000000000e+00
 -7.017012685537338257e-03 2.914804732427000999e-03 0.000000000000000000e+00
 -6.998937111347913742e-03 2.900647697970271111e-03 0.000000000000000000e+00
 -6.981914397329092026e-03 2.887315582484006882e-03 0.000000000000000000e+00
 -6.965895183384418488e-03 2.874769037589430809e-03 0.000000000000000000e+00
 -6.950822658836841583e-03 2.862964291125535965e-03 0.000000000000000000e+00
 -6.936636753380298615e-03 2.851853612810373306e-03 0.000000000000000000e+00
 -7.546940352767705917e-03 3.440669039264321327e-03 0.000000000000000000e+00
 -7.537643890827894211e-03 3.433184698224067688e-03 0.000000000000000000e+00
 -7.527301087975502014e-03 3.424857975915074348e-03 0.000000000000000000e+00
 -7.515825796872377396e-03 3.415619721636176109e-03 0.000000000000000000e+00
 -7.503136526793241501e-03 3.405404044315218925e-03 0.000000000000000000e+00
 -7.489157840609550476e-03 3.394150407984852791e-03 0.000000000000000000e+00
 -7.473827805370092392e-03 3.381808754056692123e-03 0.000000000000000000e+00
 -7.457099854946136475e-03 3.368341829627752304e-03 0.000000000000000000e+00
 -7.438950706273317337e-03 3.353730542585253716e-03 0.000000000000000000e+00
 -7.419382687658071518e-03 3.337976988404989243e-03 0.000000000000000000e+00
 -7.398431189358234406e-03 3.321109805256128311e-03 0.000000000000000000e+00
 -7.376166060566902161e-03 3.303184872493147850e-03 0.000000000000000000e+00
 -7.352694403380155563e-03 3.284288570284843445e-03 0.000000000000000000e+00
 -7.328160107135772705e-03 3.264536848291754723e-03 0.000000000000000000e+00
 -7.302741054445505142e-03 3.244072897359728813e-03 0.000000000000000000e+00
 -7.276643998920917511e-03 3.223063191398978233e-03 0.000000000000000000e+00
 -7.250097114592790604e-03 3.201691200956702232e-03 0.000000000000000000e+00
 -7.223339751362800598e-03 3.180149942636489868e-03 0.000000000000000000e+00
 -7.196613121777772903e-03 3.158633364364504814e-03 0.000000000000000000e+00
 -7.170149590820074081e-03 3.137328429147601128e-03 0.000000000000000000e+00
 -7.144161965698003769e-03 3.116406733170151711e-03 0.000000000000000000e+00
 -7.118837907910346985e-03 3.096019150689244270e-03 0.000000000000000000e+00
 -7.094332482665777206e-03 3.076290944591164589e-03 0.000000000000000000e+00
 -7.070767693221569061e-03 3.057319670915603638e-03 0.000000000000000000e+00
 -7.048229221254587173e-03 3.039174713194370270e-03 0.000000000000000000e+00
 -7.026770617812871933e-03 3.021899145096540451e-03 0.000000000000000000e+00
 -7.006415165960788727e-03 3.005511825904250145e-03 0.000000000000000000e+00
 -6.987161468714475632e-03 2.990011358633637428e-03 0.000000000000000000e+00
 -6.968987174332141876e-03 2.975379815325140953e-03 0.000000000000000000e+00
 -6.951854098588228226e-03 2.961586695164442062e-03 0.000000000000000000e+00
 -6.935713812708854675e-03 2.948592882603406906e-03 0.000000000000000000e+00
 -6.920511368662118912e-03 2.936353674158453941e-03 0.000000000000000000e+00
 -6.906187161803245544e-03 2.924821805208921432e-03 0.000000000000000000e+00
 -7.516056299209594727e-03 3.527743509039282799e-03 0.000000000000000000e+00
 -7.506756577640771866e-03 3.520051250234246254e-03 0.000000000000000000e+00
 -7.496414240449666977e-03 3.511496819555759430e-03 0.000000000000000000e+00
 -7.484944537281990051e-03 3.502009203657507896e-03 0.000000000000000000e+00
 -7.472264580428600311e-03 3.491521114483475685e-03 0.000000000000000000e+00
 -7.458300795406103134e-03 3.479970851913094521e-03 0.000000000000000000e+00
 -7.442990783601999283e-03 3.467306960374116898e-03 0.000000000000000000e+00
 -7.426288444548845291e-03 3.453491488471627235e-03 0.000000000000000000e+00
 -7.408170029520988464e-03 3.438504645600914955e-03 0.000000000000000000e+00
 -7.388638332486152649e-03 3.422348992899060249e-03 0.000000000000000000e+00
 -7.367727812379598618e-03 3.405052702873945236e-03 0.000000000000000000e+00
 -7.345507387071847916e-03 3.386673051863908768e-03 0.000000000000000000e+00
 -7.322083692997694016e-03 3.367298049852252007e-03 0.000000000000000000e+00
 -7.297598756849765778e-03 3.347045276314020157e-03 0.000000000000000000e+00
 -7.272229529917240143e-03 3.326060716062784195e-03 0.000000000000000000e+00
 -7.246180437505245209e-03 3.304514102637767792e-03 0.000000000000000000e+00
 -7.219677790999412537e-03 3.282592399045825005e-03 0.000000000000000000e+00
 -7.192959543317556381e-03 3.260491881519556046e-03 0.000000000000000000e+00
 -7.166264113038778305e-03 3.238410688936710358e-03 0.000000000000000000e+00
 -7.139822002500295639e-03 3.216539043933153152e-03 0.000000000000000000e+00
 -7.113845087587833405e-03 3.195052035152912140e-03 0.000000000000000000e+00
 -7.088519167155027390e-03 3.174103563651442528e-03 0.000000000000000000e+00
 -7.063998840749263763e-03 3.153821453452110291e-03 0.000000000000000000e+00
 -7.040404714643955231e-03 3.134305356070399284e-03 0.000000000000000000e+00
 -7.017822470515966415e-03 3.115626517683267593e-03 0.000000000000000000e+00
 -6.996306125074625015e-03 3.097828943282365799e-03 0.000000000000000000e+00
 -6.975878961384296417e-03 3.080932423472404480e-03 0.000000000000000000e+00
 -6.956539582461118698e-03 3.064936026930809021e-03 0.000000000000000000e+00
[...]
<CellData>
 <DataArray Name="pos.x" type="Float32" NumberOfComponents="1" format="ascii">
 -7.587011060313588601e-03
 -7.577195033322279075e-03
 -7.566284037264540789e-03
 -7.554193280702190504e-03
 -7.540843734313456594e-03
 -7.526166209194983317e-03
 -7.510106033172383143e-03
 -7.492628140906791752e-03
 -7.473722279790420350e-03
 -7.453407917919680804e-03
 -7.431738343782030853e-03
 -7.408803396242362969e-03
 -7.384730284985625316e-03
 -7.359682075327659244e-03
 -7.333853621155715825e-03
 -7.307465016725057938e-03
 -7.280752959622636272e-03
 -7.253960713988568190e-03
 -7.227327573096938365e-03
 -7.201078796534162926e-03
 -7.175416921854756158e-03
 -7.150515141102144374e-03
 -7.126513135957760793e-03
 -7.103515443474236850e-03
 -7.081592136989778297e-03
 -7.060781396628453520e-03
 -7.041093429872920251e-03
 -7.022515181345786485e-03
 -7.005015322444831972e-03
 -6.988549108874893626e-03
 -6.973062810630398234e-03
 -6.958497533618770818e-03
 -7.557321767653176793e-03
 -7.547504023647847587e-03
 -7.536595158221115129e-03
 -7.524510845029240905e-03
 -7.511172474198783526e-03
 -7.496511198953848161e-03
 -7.480472575562174473e-03
 -7.463021613891380676e-03
 -7.444147943050238511e-03
 -7.423870681819417713e-03
 -7.402242507709807205e-03
 -7.379352367886121353e-03
 -7.355326296530512523e-03
 -7.330325916051692349e-03
 -7.304544407633702455e-03
 -7.278200021192662503e-03
 -7.251527513708068071e-03
 -7.224768199203609673e-03
 -7.198159501923905197e-03
 -7.171924979723540670e-03
 -7.146265709967656449e-03
 -7.121353722491746523e-03
 -7.097327869998826949e-03
 -7.074292207172152951e-03
 -7.052316664795628583e-03
 -7.031439596798377649e-03
 -7.011671665147871380e-03
 -6.993000506406628521e-03
 -6.975395674883264410e-03
 -6.958813453901070700e-03
 -6.943201242337250501e-03
 -6.928501337227093576e-03
 -7.526834170247516213e-03
 -7.517015162629714538e-03
 -7.506108936238166038e-03
 -7.494031634261176522e-03
 -7.480705070383928540e-03
 -7.466060743533624484e-03
 -7.450044441195012232e-03
 -7.432621250141841635e-03
 -7.413780681537209503e-03
 -7.393541503550342918e-03
 -7.371955779568993040e-03
 -7.349111559909850440e-03
 -7.325133696061000670e-03
 -7.300182358379985088e-03
 -7.274449044488315481e-03
 -7.248150147746575470e-03
 -7.221518471441744705e-03
 -7.194793366094287372e-03
 -7.168210373810191514e-03
 -7.141991338441856449e-03
 -7.116335866220228901e-03
 -7.091414815516693983e-03
 -7.067366202719805625e-03
 -7.044293594804994403e-03
 -7.022266776634858085e-03
 -7.001324274384817560e-03
 -6.981477204538930753e-03
 -6.962713896956520924e-03
 -6.945004791248965935e-03
 -6.928307201516522087e-03
 -6.912569659183792972e-03
 -6.897735656386788997e-03
 -7.495549475253752807e-03
 -7.485729691100641986e-03
 -7.474826648992601366e-03
 -7.462756966293414285e-03
 -7.449442884573231199e-03
 -7.434816252217893613e-03
 -7.418823090856816599e-03
 -7.401428565979039503e-03
 -7.382622071191002888e-03
 -7.362422022741879971e-03
 -7.340879866658895497e-03
 -7.318082751088052923e-03
 -7.294154337373997404e-03
 -7.269253334342741686e-03
 -7.243569544771346139e-03
 -7.217317492774836564e-03
 -7.190728014347082947e-03
 -7.164038482574605453e-03
 -7.137482543774518150e-03
 -7.111280315015038565e-03
 -7.085629919971168228e-03
 -7.060701035874559356e-03
 -7.036630835102107573e-03
 -7.013522391306133662e-03
 -6.991445339832539491e-03
 -6.970438377389378236e-03
 -6.950513074905202877e-03
 -6.931658456833046482e-03
 -6.913845850453874051e-03
 -6.897033603802061631e-03
 -6.881171384534743619e-03
 -6.866203883878736237e-03
 -7.463468965983256070e-03
 -7.453648926143608203e-03
 -7.442749650440466484e-03
 -7.430688235286427891e-03
 -7.417387354656411122e-03
 -7.402779210332091110e-03
 -7.386810061168708717e-03
 -7.369445153283243378e-03
 -7.350673763170215667e-03
 -7.330513953841823541e-03
 -7.309016550643744788e-03
 -7.286267794066647423e-03
 -7.262390147621799845e-03
 -7.237540848798176482e-03
 -7.211907993856028765e-03
 -7.185704224522835443e-03
 -7.159158395403835209e-03
 -7.132505887707259185e-03
 -7.105978437800365179e-03
 -7.079794422686455646e-03
 -7.054150471607807844e-03
 -7.029215070573567939e-03
 -7.005124539916302365e-03
 -6.981981454058602300e-03
 -6.959855295022964426e-03
 -6.938784928173184069e-03
 -6.918782378702814824e-03
 -6.899837366880457248e-03
 -6.881922109990018348e-03
 -6.864995993141902522e-03
 -6.849009823912465683e-03
 -6.833909496618036615e-03
 -7.430594001915635620e-03
 -7.420774261074122163e-03
 -7.409879370803618137e-03
 -7.397826911636021588e-03
 -7.384539994668008409e-03
 -7.369951179199099589e-03
 -7.354006964528848889e-03
 -7.336672679424471356e-03
 -7.317937483770295577e-03
 -7.297819086018540041e-03
 -7.276367687437553661e-03
 -7.253668615230911797e-03
 -7.229843127158106647e-03
 -7.205046979262913487e-03
 -7.179466549247453741e-03
 -7.153312582880635463e-03
 -7.126811938819215334e-03
 -7.100197991458167233e-03
 -7.073700552564254375e-03
 -7.047536245325183857e-03
 -7.021900192236523765e-03
 -6.996959677618688235e-03
 -6.972850161382898419e-03
 -6.949673712550878506e-03
 -6.927499655794462294e-03
 -6.906367023093032756e-03
 -6.886288293606875749e-03
 -6.867253884568526312e-03
 -6.849236905545869059e-03
 -6.832197781836444467e-03
 -6.816088464611205940e-03
 -6.800856055267839005e-03
 -7.396926018688068302e-03
 -7.387107165439369197e-03
 -7.376217316550936522e-03
 -7.364174541949499407e-03
 -7.350902394764683920e-03
 -7.336333796094916988e-03
 -7.320415489056562863e-03
 -7.303112887195664649e-03
 -7.284415034339467715e-03
 -7.264339283059392631e-03
 -7.242935207087445974e-03
 -7.220287214570754106e-03
 -7.196515349385075241e-03
 -7.171773875738738681e-03
 -7.146247440388085910e-03
 -7.120144879170875116e-03
 -7.093691039791505219e-03
 -7.067117274438755072e-03
 -7.040651455163656966e-03
 -7.014508437137242230e-03
 -6.988881823381847685e-03
 -6.963937685681874032e-03
 -6.939810614838760883e-03
 -6.916602168025687107e-03
 -6.894381508324724100e-03
 -6.873187832127149524e-03
 -6.853034072135316852e-03
 -6.833911343607450457e-03
 -6.815793650611344859e-03
 -6.798642461708515744e-03
 -6.782410875298234935e-03
 -6.767047203835938572e-03
 -7.362466528096577555e-03
 -7.352649185005373164e-03
 -7.341765070384494336e-03
 -7.329732749025694161e-03
 -7.316476221181073165e-03
 -7.301928774205702216e-03
 -7.286037398539127463e-03
 -7.268767594737955695e-03
 -7.250108291191448458e-03
 -7.230076483271410948e-03
 -7.208721113657352159e-03
 -7.186125665542469898e-03
 -7.162408960596421299e-03
 -7.137723760539740024e-03
 -7.112252968464505103e-03
 -7.086203495932627550e-03
 -7.059798164276930542e-03
 -7.033266287653328931e-03
 -7.006833782839888038e-03
 -6.980713722371773011e-03
 -6.955098176667968285e-03
 -6.930151993780197736e-03
 -6.906008886391153123e-03
 -6.882769893124168759e-03
 -6.860504011015922457e-03
 -6.839250598497530892e-03
 -6.819023041262160800e-03
 -6.799813153552467654e-03
 -6.781595836085063667e-03
 -6.764333603694462453e-03
 -6.747980705611211598e-03
 -6.732486669270424870e-03
 -7.327217118087464738e-03
 -7.317401941750553696e-03
 -7.306524291224299889e-03
 -7.294503231821525442e-03
 -7.281263216198546537e-03
 -7.266737902577220971e-03
 -7.250874532368124445e-03
 -7.233638695471914133e-03
 -7.215019205520274009e-03
 -7.195032699378887779e-03
 -7.173727485104949668e-03
 -7.151186114933012240e-03
 -7.127526179823036150e-03
 -7.102898928110732216e-03
 -7.077485506208475857e-03
 -7.051490886701035181e-03
 -7.025135848748994757e-03
 -6.998647652236656379e-03
 -6.972250242703773027e-03
 -6.946154895023559130e-03
 -6.920552133509733604e-03
 -6.895605570937968741e-03
 -6.871448032572551913e-03
 -6.848180031524308056e-03
 -6.825870394120816219e-03
 -6.804558638287147576e-03
 -6.784258602024171442e-03
 -6.764962799406259303e-03
 -6.746647029862391787e-03
 -6.729274857442133287e-03
 -6.712801685737734836e-03
 -6.697178261043465301e-03
 -7.291179452762744026e-03
 -7.281367133853250059e-03
 -7.270496714183713460e-03
 -7.258487765436996871e-03
 -7.245265198110010033e-03
 -7.230763046071633782e-03
 -7.214928805481518083e-03
 -7.197728158024240853e-03
 -7.179149803314036939e-03
 -7.159210018416265094e-03
 -7.137956473162988813e-03
 -7.115470782718623030e-03
 -7.091869298671531728e-03
 -7.067301744851528338e-03
 -7.041947497697235644e-03
 -7.016009575791494479e-03
 -6.989706699959585129e-03
 -6.963264059196217631e-03
 -6.936903611450735002e-03
 -6.910834818531439924e-03
 -6.885246644790262230e-03
 -6.860301455859291360e-03
 -6.836131179990566353e-03
 -6.812835797577607849e-03
 -6.790483959363954533e-03
 -6.769115340054241738e-03
 -6.748744229121531740e-03
 -6.729363841213436941e-03
 -6.710950876425537427e-03
 -6.693469950884137556e-03
 -6.676877625997688914e-03
 -6.661125870718237474e-03
 -7.254355272371035973e-03
 -7.244546535681089909e-03
 -7.233684150561744269e-03
 -7.221688201074713716e-03
 -7.208484061181172353e-03
 -7.194006145317503008e-03
 -7.178202208304706664e-03
 -7.161038026152199108e-03
 -7.142502185260669878e-03
 -7.122610601626504397e-03
 -7.101410303213961592e-03
 -7.078981961925617100e-03
 -7.055440681164005037e-03
 -7.030934648935674262e-03
 -7.005641458153568854e-03
 -6.979762158074952032e-03
 -6.953513394694513759e-03
 -6.927118269147069553e-03
 -6.900796735077885553e-03
 -6.874756425479181497e-03
 -6.849184730540575430e-03
 -6.824242756581477484e-03
 -6.800061524973069829e-03
 -6.776740475939494260e-03
 -6.754348079563752584e-03
 -6.732924164433137619e-03
 -6.712483470517417554e-03
 -6.693019913643574563e-03
 -6.674511096422790050e-03
 -6.656922689814908332e-03
 -6.640212416407720308e-03
 -6.624333471519115030e-03
 -7.216746393304416390e-03
 -7.206941997785106836e-03
 -7.196088487815601939e-03
 -7.184106466023872269e-03
 -7.170921775612104296e-03
 -7.156469216659144990e-03
 -7.140696806686223225e-03
 -7.123570418667863474e-03
 -7.105078526664169655e-03
 -7.085236684351701140e-03
 -7.064091274168527931e-03
 -7.041722018483991506e-03
 -7.018242763578174705e-03
 -6.993800150127566298e-03
 -6.968569973741033097e-03
 -6.942751298754092255e-03
 -6.916558679529097656e-03
 -6.890213112045400802e-03
 -6.863932528600196273e-03
 -6.837922717282899493e-03
 -6.812369479617758246e-03
 -6.787432650138792121e-03
 -6.763242333207858913e-03
 -6.739897421197449216e-03
 -6.717466198240306177e-03
 -6.695988643739693436e-03
 -6.675479947025593150e-03
 -6.655934725574678967e-03
 -6.637331486241411505e-03
 -6.619636957456915757e-03
 -6.602810026242275469e-03
 -6.586805117885596514e-03
 -7.178354708097163007e-03
 -7.168555446882348900e-03
 -7.157711689543013595e-03
 -7.145744563626367681e-03
 -7.132580387502833116e-03
 -7.118154352111036309e-03
 -7.102414741837322944e-03
 -7.085327529362944743e-03
 -7.066881077346599295e-03
 -7.047090575925812027e-03
 -7.026001758337934583e-03
 -7.003693391087781155e-03
 -6.980278054280268998e-03
 -6.955900829600016391e-03
 -6.930735701361496158e-03
 -6.904979733137754823e-03
 -6.878845370581008339e-03
 -6.852551486922112134e-03
 -6.826313975759196184e-03
 -6.800336763891916443e-03
 -6.774804049373591743e-03
 -6.749874382216320551e-03
 -6.725676939384943841e-03
 -6.702310057490922998e-03
 -6.679841829228732285e-03
 -6.658312381565657107e-03
 -6.637737351895862600e-03
 -6.618112059668841696e-03
 -6.599415917569449209e-03
 -6.581616714015975887e-03
 -6.564674503587495866e-03
 -6.548544945015468549e-03
 -7.139182185418742853e-03
 -7.129388885848486970e-03
 -7.118555795468355617e-03
 -7.106604573246928964e-03
 -7.093462018805827586e-03
 -7.079063719302019879e-03
 -7.063358230267116622e-03
 -7.046311626930455881e-03
 -7.027912161558304803e-03
 -7.008174659564993594e-03
 -6.987144201307775825e-03
 -6.964898591045411147e-03
 -6.941549133562346062e-03
 -6.917239339746032029e-03
 -6.892141368446669941e-03
 -6.866450266413526293e-03
 -6.840376353261653011e-03
 -6.814136361612697403e-03
 -6.787944128735208874e-03
 -6.762001703470748790e-03
 -6.736491665329706093e-03
 -6.711571266800149191e-03
 -6.687368746828601523e-03
 -6.663981878132484507e-03
 -6.641478556281569558e-03
 -6.619899052369538663e-03
 -6.599259450392714124e-03
 -6.579555771938078515e-03
 -6.560768336962422183e-03
 -6.542865996235486606e-03
 -6.525809974879349593e-03
 -6.509557168406981086e-03
 -7.099230870070801641e-03
 -7.089444393705010734e-03
 -7.078622921413828609e-03
 -7.066688650246068584e-03
 -7.053568867296063603e-03
 -7.039199561425802873e-03
 -7.023529563719067663e-03
 -7.006525054887376321e-03
 -6.988174177883293807e-03
 -6.968491392258808169e-03
 -6.947521121810431438e-03
 -6.925340202136016574e-03
 -6.902058653475139430e-03
 -6.877818403994549572e-03
 -6.852789772752710534e-03
 -6.827165773418787838e-03
 -6.801154582025304048e-03
 -6.774970772484010736e-03
 -6.748826107851531829e-03
 -6.722920742089019859e-03
 -6.697435620840228032e-03
 -6.672526685827631469e-03
 -6.648321227129145791e-03
 -6.624916445223643334e-03
 -6.602380032667989548e-03
 -6.580752401064363620e-03
 -6.560050079369503587e-03
 -6.540269791309152349e-03
 -6.521392765387681173e-03
 -6.503388916936400643e-03
 -6.486220644444397158e-03
 -6.469846083380299644e-03
 -7.058502882981519851e-03
 -7.048724125605733415e-03
 -7.037915259286823405e-03
 -7.025999025948720389e-03
 -7.012903206522825769e-03
 -6.998564197189834427e-03
 -6.982931109104090726e-03
 -6.965970231491432942e-03
 -6.947669599146025395e-03
 -6.928043304656745192e-03
 -6.907135111595868841e-03
 -6.885020880459578017e-03
 -6.861809337660672824e-03
 -6.837640816621759661e-03
 -6.812683782148196837e-03
 -6.787129198409881659e-03
 -6.761183080118472223e-03
 -6.735057824162758028e-03
 -6.708963101282155485e-03
 -6.683097153406886842e-03
 -6.657639276759753921e-03
 -6.632744088834258839e-03
 -6.608537919771793716e-03
 -6.585117389264863973e-03
 -6.562549980772337463e-03
 -6.540876242597734591e-03
 -6.520113146837849295e-03
 -6.500258119179062530e-03
 -6.481293297775699881e-03
 -6.463189664554669367e-03
 -6.445910794021947159e-03
 -6.429416064601396578e-03
 -7.017000421201659288e-03
 -7.007230312823481237e-03
 -6.996435077050732615e-03
 -6.984538007613613937e-03
 -6.971467385769633540e-03
 -6.957160020759603665e-03
 -6.941565308435193420e-03
 -6.924649649664888461e-03
 -6.906400972314478970e-03
 -6.886833000955921297e-03
 -6.865988835299465833e-03
 -6.843943354289483937e-03
 -6.820803981181292747e-03
 -6.796709442560286765e-03
 -6.771826334404906431e-03
 -6.746343554829611205e-03
 -6.720464939323859792e-03
 -6.694400689258328020e-03
 -6.668358364754453302e-03
 -6.642534278356478777e-03
 -6.617106061104848815e-03
 -6.592226992595476807e-03
 -6.568022431762687852e-03
 -6.544588408763917300e-03
 -6.521992191684073889e-03
 -6.500274461529920514e-03
 -6.479452631529753967e-03
 -6.459524828965707184e-03
 -6.440474102557816258e-03
 -6.422272502671568135e-03
 -6.404884782289247715e-03
 -6.388271565593616266e-03
 -6.974725757895868655e-03
 -6.964965262741571600e-03
 -6.954184718711258449e-03
 -6.942307978403066022e-03
 -6.929263830014478764e-03
 -6.914989501705445275e-03
 -6.899434678761571550e-03
 -6.882565876912983410e-03
 -6.864370918400197752e-03
 -6.844863158790200248e-03
 -6.824085030314618570e-03
 -6.802110423920005103e-03
 -6.779045450355142971e-03
 -6.755027217210674180e-03
 -6.730220436987941791e-03
 -6.704811925074756138e-03
 -6.679003319706257324e-03
 -6.653002608088195123e-03
 -6.627015221252537981e-03
 -6.601235524823505403e-03
 -6.575839468715811813e-03
 -6.550978980768539135e-03
 -6.526778437249304045e-03
 -6.503333269841629107e-03
 -6.480710524788040917e-03
 -6.458951011606682731e-03
 -6.438072582456990170e-03
 -6.418074065654268655e-03
 -6.398939421197821602e-03
 -6.380641769532734674e-03
 -6.363147044366911607e-03
 -6.346417118234014623e-03
 </DataArray>
 <DataArray Name="pos.y" type="Float32" NumberOfComponents="1" format="ascii">
 3.306153628528460224e-03
 3.298568221661182884e-03
 3.290137387409846226e-03
 3.280795643431682479e-03
 3.270481957231054400e-03
 3.259142896305508574e-03
 3.246736240200968123e-03
 3.233234912186434221e-03
 3.218631000384390012e-03
 3.202939548810612973e-03
 3.186201724130828267e-03
 3.168486924515623217e-03
 3.149893413611334816e-03
 3.130547150513910380e-03
 3.110598648693098378e-03
 3.090217918447984904e-03
 3.069587795842084865e-03
 3.048896190284116313e-03
 3.028327945124973872e-03
 3.008057064453597586e-03
 2.988240001093280928e-03
 2.969010539040669097e-03
 2.950476574530190837e-03
 2.932718851425533332e-03
 2.915791484760388557e-03
 2.899723943964682780e-03
 2.884524079363336505e-03
 2.870181759038818205e-03
 2.856672722890249167e-03
 2.843962335824586248e-03
 2.832009011885011553e-03
 2.820767169472577964e-03
 3.393397175793362759e-03
 3.385596951111949447e-03
 3.376930549255706231e-03
 3.367331014493470109e-03
 3.356735929919901079e-03
 3.345090631110920684e-03
 3.332351890969593132e-03
 3.318491930654633455e-03
 3.303502521925984464e-03
 3.287398855074939643e-03
 3.270222770489846550e-03
 3.252044911722338193e-03
 3.232965374843472638e-03
 3.213112518490374939e-03
 3.192639764218315954e-03
 3.171720442755408560e-03
 3.150540994982076182e-03
 3.129293070165132824e-03
 3.108165229358134888e-03
 3.087335021836265080e-03
 3.066962143112958450e-03
 3.047183218154264368e-03
 3.028108519862762922e-03
 3.009820679562819068e-03
 2.992375219990242412e-03
 2.975802575858103871e-03
 2.960111177390185953e-03
 2.945291155430681835e-03
 2.931318267272923009e-03
 2.918157718937027315e-03
 2.905767651304862545e-03
 2.894102147597354003e-03
 3.480459637850913130e-03
 3.472442616104523365e-03
 3.463538627943335297e-03
 3.453679248692407677e-03
 3.442800680543977709e-03
 3.430847029106254189e-03
 3.417774060301655755e-03
 3.403553289768902583e-03
 3.388176165624074039e-03
 3.371658012544727877e-03
 3.354041327571195309e-03
 3.335397977052709934e-03
 3.315829861412254633e-03
 3.295467705706946714e-03
 3.274467802311364570e-03
 3.253006762307141149e-03
 3.231274590216133037e-03
 3.209466634836564622e-03
 3.187775137465423490e-03
 3.166381159891125310e-03
 3.145447614074617110e-03
 3.125113947389751394e-03
 3.105492799300264926e-03
 3.086668687221964542e-03
 3.068698548795984263e-03
 3.051613799237888874e-03
 3.035423471070775470e-03
 3.020117986456804810e-03
 3.005673153673175252e-03
 2.992054057343610397e-03
 2.979218605476228240e-03
 2.967120588185739871e-03
 3.567338535788285459e-03
 3.559102653822891413e-03
 3.549958970173604407e-03
 3.539837595263205152e-03
 3.528673353518614522e-03
 3.516409122180366373e-03
 3.502999659551543285e-03
 3.488415772097336939e-03
 3.472648576839922237e-03
 3.455713520880563088e-03
 3.437653740869225059e-03
 3.418542303514887810e-03
 3.398482885784721592e-03
 3.377608546421171157e-03
 3.356078411842792694e-03
 3.334072333999666023e-03
 3.311783840543276042e-03
 3.289411940186785094e-03
 3.267152517745904906e-03
 3.245190115578414688e-03
 3.223690836556281254e-03
 3.202796932560011793e-03
 3.182623400114507374e-03
 3.163256641909161816e-03
 3.144755018182660185e-03
 3.127150940312981974e-03
 3.110454065916631872e-03
 3.094655137390051134e-03
 3.079730047920767756e-03
 3.065643798544010271e-03
 3.052354104996040686e-03
 3.039814506665340817e-03
 3.654031164317857357e-03
 3.645574279277948374e-03
 3.636188705271092662e-03
 3.625803091525333678e-03
 3.614350887504241220e-03
 3.601773743376341340e-03
 3.588025408914507185e-03
 3.573075977530322089e-03
 3.556916227535247832e-03
 3.539561716396504281e-03
 3.521056203317560109e-03
 3.501473933005157680e-03
 3.480920331334950990e-03
 3.459530758263263967e-03
 3.437467137832247391e-03
 3.414912523806126060e-03
 3.392063926949173951e-03
 3.369123976814281714e-03
 3.346292165577431817e-03
 3.323756484798225195e-03
 3.301686203289322732e-03
 3.280226360083984567e-03
 3.259494299789351696e-03
 3.239578310035654170e-03
 3.220538181809503003e-03
 3.202407338737848531e-03
 3.185196086732475750e-03
 3.168895517726972536e-03
 3.153481644124814763e-03
 3.138919421555741267e-03
 3.125166414457418874e-03
 3.112175954250653766e-03
 3.740534591793132080e-03
 3.731854485319289691e-03
 3.722224745200875071e-03
 3.711572562882906306e-03