<VTKFile type="UnstructuredGrid" byte_order="BigEndian">
<UnstructuredGrid><Piece NumberOfPoints="2680" NumberOfCells="2527">
<Points>
 <DataArray type="Float32" NumberOfComponents="3" format="ascii">
 -6.961003877222537994e-03 1.389261707663536072e-02 0.000000000000000000e+00
 -6.944050081074237823e-03 1.384526584297418594e-02 0.000000000000000000e+00
 -6.927098613232374191e-03 1.379792112857103348e-02 0.000000000000000000e+00
 -6.910151802003383636e-03 1.375059038400650024e-02 0.000000000000000000e+00
 -6.893212907016277313e-03 1.370328012853860855e-02 0.000000000000000000e+00
 -6.876283790916204453e-03 1.365599781274795532e-02 0.000000000000000000e+00
 -6.859366782009601593e-03 1.360874995589256287e-02 0.000000000000000000e+00
 -6.842464674264192581e-03 1.356154307723045349e-02 0.000000000000000000e+00
 -6.825579795986413956e-03 1.351438462734222412e-02 0.000000000000000000e+00
 -6.808714941143989563e-03 1.346728112548589706e-02 0.000000000000000000e+00
 -6.791871972382068634e-03 1.342023909091949463e-02 0.000000000000000000e+00
 -6.775053218007087708e-03 1.337326597422361374e-02 0.000000000000000000e+00
 -6.758261937648057938e-03 1.332636829465627670e-02 0.000000000000000000e+00
 -6.741499528288841248e-03 1.327955164015293121e-02 0.000000000000000000e+00
 -6.724768783897161484e-03 1.323282439261674881e-02 0.000000000000000000e+00
 -6.708072498440742493e-03 1.318619120866060257e-02 0.000000000000000000e+00
 -6.691412068903446198e-03 1.313965953886508942e-02 0.000000000000000000e+00
 -6.674790289252996445e-03 1.309323683381080627e-02 0.000000000000000000e+00
 -6.658209487795829773e-03 1.304692775011062622e-02 0.000000000000000000e+00
 -6.641671992838382721e-03 1.300073880702257156e-02 0.000000000000000000e+00
 -6.625180132687091827e-03 1.295467745512723923e-02 0.000000000000000000e+00
 -6.608735769987106323e-03 1.290874835103750229e-02 0.000000000000000000e+00
 -6.592340767383575439e-03 1.286295894533395767e-02 0.000000000000000000e+00
 -6.575997918844223022e-03 1.281731389462947845e-02 0.000000000000000000e+00
 -6.559709552675485611e-03 1.277182064950466156e-02 0.000000000000000000e+00
 -6.543476600199937820e-03 1.272648386657238007e-02 0.000000000000000000e+00
 -6.527302321046590805e-03 1.268131006509065628e-02 0.000000000000000000e+00
 -6.511188577860593796e-03 1.263630390167236328e-02 0.000000000000000000e+00
 -6.495136767625808716e-03 1.259147189557552338e-02 0.000000000000000000e+00
 -6.479148752987384796e-03 1.254681870341300964e-02 0.000000000000000000e+00
 -6.463227327913045883e-03 1.250235084444284439e-02 0.000000000000000000e+00
 -6.447373889386653900e-03 1.245807297527790070e-02 0.000000000000000000e+00
 -6.431590300053358078e-03 1.241398975253105164e-02 0.000000000000000000e+00
 -6.415878422558307648e-03 1.237010769546031952e-02 0.000000000000000000e+00
 -6.400239653885364532e-03 1.232642959803342819e-02 0.000000000000000000e+00
 -6.384676788002252579e-03 1.228296197950839996e-02 0.000000000000000000e+00
 -6.369190290570259094e-03 1.223970949649810791e-02 0.000000000000000000e+00
 -6.353782489895820618e-03 1.219667587429285049e-02 0.000000000000000000e+00
 -6.338454782962799072e-03 1.215386670082807541e-02 0.000000000000000000e+00
 -6.323209032416343689e-03 1.211128570139408112e-02 0.000000000000000000e+00
 -6.308046169579029083e-03 1.206893753260374069e-02 0.000000000000000000e+00
 -6.292968522757291794e-03 1.202682591974735260e-02 0.000000000000000000e+00
 -6.277977023273706436e-03 1.198495551943778992e-02 0.000000000000000000e+00
 -6.263073068112134933e-03 1.194333005696535110e-02 0.000000000000000000e+00
 -6.248258519917726517e-03 1.190195232629776001e-02 0.000000000000000000e+00
 -6.233533844351768494e-03 1.186082791537046432e-02 0.000000000000000000e+00
 -6.218900904059410095e-03 1.181995868682861328e-02 0.000000000000000000e+00
 -6.204361096024513245e-03 1.177934929728507996e-02 0.000000000000000000e+00
 -6.189915351569652557e-03 1.173900254070758820e-02 0.000000000000000000e+00
 -6.175564602017402649e-03 1.169892214238643646e-02 0.000000000000000000e+00
 -6.161310244351625443e-03 1.165911089628934860e-02 0.000000000000000000e+00
 -6.147153209894895554e-03 1.161957066506147385e-02 0.000000000000000000e+00
 -6.133094895631074905e-03 1.158030610531568527e-02 0.000000000000000000e+00
 -6.119135767221450806e-03 1.154131907969713211e-02 0.000000000000000000e+00
 -6.105277221649885178e-03 1.150261238217353821e-02 0.000000000000000000e+00
 -6.091519724577665329e-03 1.146418880671262741e-02 0.000000000000000000e+00
 -6.077864207327365875e-03 1.142605021595954895e-02 0.000000000000000000e+00
 -6.064311601221561432e-03 1.138819847255945206e-02 0.000000000000000000e+00
 -6.050862837582826614e-03 1.135063637048006058e-02 0.000000000000000000e+00
 -6.037518382072448730e-03 1.131336577236652374e-02 0.000000000000000000e+00
 -6.024279166013002396e-03 1.127638947218656540e-02 0.000000000000000000e+00
 -6.011145655065774918e-03 1.123970746994018555e-02 0.000000000000000000e+00
 -5.998118314892053604e-03 1.120332255959510803e-02 0.000000000000000000e+00
 -5.985197611153125763e-03 1.116723660379648209e-02 0.000000000000000000e+00
 -5.972384475171566010e-03 1.113145053386688232e-02 0.000000000000000000e+00
 -5.959679372608661652e-03 1.109596528112888336e-02 0.000000000000000000e+00
 -5.947082303464412689e-03 1.106078270822763443e-02 0.000000000000000000e+00
 -5.934594199061393738e-03 1.102590374648571014e-02 0.000000000000000000e+00
 -5.922215059399604797e-03 1.099132932722568512e-02 0.000000000000000000e+00
 -5.909945350140333176e-03 1.095706038177013397e-02 0.000000000000000000e+00
 -5.897785071283578873e-03 1.092309784144163132e-02 0.000000000000000000e+00
 -5.885735154151916504e-03 1.088944263756275177e-02 0.000000000000000000e+00
 -5.873795133084058762e-03 1.085609383881092072e-02 0.000000000000000000e+00
 -5.861965473741292953e-03 1.082305423915386200e-02 0.000000000000000000e+00
 -5.850246176123619080e-03 1.079032290726900101e-02 0.000000000000000000e+00
 -5.838637240231037140e-03 1.075790077447891235e-02 0.000000000000000000e+00
 -5.827139131724834442e-03 1.072578690946102142e-02 0.000000000000000000e+00
 -5.815751850605010986e-03 1.069398224353790283e-02 0.000000000000000000e+00
 -5.804474931210279465e-03 1.066248677670955658e-02 0.000000000000000000e+00
 -5.793308839201927185e-03 1.063130050897598267e-02 0.000000000000000000e+00
 -5.782253574579954147e-03 1.060042250901460648e-02 0.000000000000000000e+00
 -5.771308206021785736e-03 1.056985370814800262e-02 0.000000000000000000e+00
 -5.760473664849996567e-03 1.053959317505359650e-02 0.000000000000000000e+00
 -5.749749485403299332e-03 1.050964090973138809e-02 0.000000000000000000e+00
 -5.739135202020406723e-03 1.047999504953622818e-02 0.000000000000000000e+00
 -5.728630349040031433e-03 1.045065652579069138e-02 0.000000000000000000e+00
 -5.718235857784748077e-03 1.042162440717220306e-02 0.000000000000000000e+00
 -5.707950331270694733e-03 1.039289776235818863e-02 0.000000000000000000e+00
 -5.697773769497871399e-03 1.036447566002607346e-02 0.000000000000000000e+00
 -5.687706172466278076e-03 1.033635716885328293e-02 0.000000000000000000e+00
 -5.677747074514627457e-03 1.030854135751724243e-02 0.000000000000000000e+00
 -5.667896009981632233e-03 1.028102729469537735e-02 0.000000000000000000e+00
 -5.658152513206005096e-03 1.025381498038768768e-02 0.000000000000000000e+00
 -5.648516118526458740e-03 1.022690162062644958e-02 0.000000000000000000e+00
 -5.638987291604280472e-03 1.020028721541166306e-02 0.000000000000000000e+00
 -5.629564169794321060e-03 1.017396990209817886e-02 0.000000000000000000e+00
 -5.620247218757867813e-03 1.014794781804084778e-02 0.000000000000000000e+00
 -5.611035972833633423e-03 1.012222096323966980e-02 0.000000000000000000e+00
 -5.601929500699043274e-03 1.009678747504949570e-02 0.000000000000000000e+00
 -5.592927802354097366e-03 1.007164549082517624e-02 0.000000000000000000e+00
 -5.584029946476221085e-03 1.004679407924413681e-02 0.000000000000000000e+00
 -5.575235001742839813e-03 1.002223044633865356e-02 0.000000000000000000e+00
 -5.566542968153953552e-03 9.997954592108726501e-03 0.000000000000000000e+00
 -5.557953380048274994e-03 9.973963722586631775e-03 0.000000000000000000e+00
 -5.549465306103229523e-03 9.950256906449794769e-03 0.000000000000000000e+00
 -5.541078280657529831e-03 9.926831349730491638e-03 0.000000000000000000e+00
 -5.532791372388601303e-03 9.903687052428722382e-03 0.000000000000000000e+00
 -5.524604115635156631e-03 9.880820289254188538e-03 0.000000000000000000e+00
 -5.516516044735908508e-03 9.858231060206890106e-03 0.000000000000000000e+00
 -5.508526228368282318e-03 9.835915639996528625e-03 0.000000000000000000e+00
 -5.500634200870990753e-03 9.813873097300529480e-03 0.000000000000000000e+00
 -5.492839030921459198e-03 9.792101569473743439e-03 0.000000000000000000e+00
 -5.485139787197113037e-03 9.770599193871021271e-03 0.000000000000000000e+00
 -5.477536469697952271e-03 9.749363176524639130e-03 0.000000000000000000e+00
 -5.470028147101402283e-03 9.728392586112022400e-03 0.000000000000000000e+00
 -5.462613888084888458e-03 9.707684628665447235e-03 0.000000000000000000e+00
 -5.455292761325836182e-03 9.687237441539764404e-03 0.000000000000000000e+00
 -5.448064301162958145e-03 9.667048230767250061e-03 0.000000000000000000e+00
 -5.440927576273679733e-03 9.647116996347904205e-03 0.000000000000000000e+00
 -5.433882120996713638e-03 9.627439081668853760e-03 0.000000000000000000e+00
 -5.426927004009485245e-03 9.608013555407524109e-03 0.000000000000000000e+00
 -5.420061759650707245e-03 9.588838554918766022e-03 0.000000000000000000e+00
 -5.413284990936517715e-03 9.569911286234855652e-03 0.000000000000000000e+00
 -5.406595766544342041e-03 9.551229886710643768e-03 0.000000000000000000e+00
 -5.399994552135467529e-03 9.532791562378406525e-03 0.000000000000000000e+00
 -5.393479019403457642e-03 9.514595381915569305e-03 0.000000000000000000e+00
 -5.387049634009599686e-03 9.496637620031833649e-03 0.000000000000000000e+00
[...]
<CellData>
 <DataArray Name="pos.x" type="Float32" NumberOfComponents="1" format="ascii">
 -6.905680695902000066e-03
 -6.888837574737574458e-03
 -6.871998148375134050e-03
 -6.855164876907461104e-03
 -6.838340216751909867e-03
 -6.821526619186914914e-03
 -6.804726528897257244e-03
 -6.787942382521339191e-03
 -6.771176607216710351e-03
 -6.754431619233060638e-03
 -6.737709822499968887e-03
 -6.721013607230090503e-03
 -6.704345348542824386e-03
 -6.687707405101677230e-03
 -6.671102117778526450e-03
 -6.654531808334495681e-03
 -6.637998778130719570e-03
 -6.621505306859175842e-03
 -6.605053651304509943e-03
 -6.588646044132203186e-03
 -6.572284692705721194e-03
 -6.555971777938545894e-03
 -6.539709453172866740e-03
 -6.523499843095356861e-03
 -6.507345042686156142e-03
 -6.491247116204488209e-03
 -6.475208096207890271e-03
 -6.459229982611005942e-03
 -6.443314741782091813e-03
 -6.427464305675570713e-03
 -6.411680571008285257e-03
 -6.395965398471820627e-03
 -6.380320611987743556e-03
 -6.364747998000604493e-03
 -6.349249304815562933e-03
 -6.333826241975482919e-03
 -6.318480479677549000e-03
 -6.303213648237525508e-03
 -6.288027337587958308e-03
 -6.272923096824097045e-03
 -6.257902433789754200e-03
 -6.242966814701851087e-03
 -6.228117663820760541e-03
 -6.213356363157029362e-03
 -6.198684252222541775e-03
 -6.184102627819579659e-03
 -6.169612743868400570e-03
 -6.155215811278269729e-03
 -6.140912997853590662e-03
 -6.126705428236630703e-03
 -6.112594183893632800e-03
 -6.098580303130045517e-03
 -6.084664781147656153e-03
 -6.070848570132397239e-03
 -6.057132579380268382e-03
 -6.043517675453091882e-03
 -6.030004682367849124e-03
 -6.016594381820211841e-03
 -6.003287513432771505e-03
 -5.990084775040115973e-03
 -5.976986822995715085e-03
 -5.963994272511538748e-03
 -5.951107698021373092e-03
 -5.938327633569395921e-03
 -5.925654573226350752e-03
 -5.913088971526236567e-03
 -5.900631243924701549e-03
 -5.888281767281554682e-03
 -5.876040880362864115e-03
 -5.863908884358347111e-03
 -5.851886043423030516e-03
 -5.839972585231650165e-03
 -5.828168701548137182e-03
 -5.816474548814842827e-03
 -5.804890248751643465e-03
 -5.793415888966963953e-03
 -5.782051523586069323e-03
 -5.770797173883607419e-03
 -5.759652828929718790e-03
 -5.748618446246691986e-03
 -5.737693952467621573e-03
 -5.726879244007485048e-03
 -5.716174187739602591e-03
 -5.705578621673345827e-03
 -5.695092355640325038e-03
 -5.684715171984908860e-03
 -5.674446826250647419e-03
 -5.664287047877836732e-03
 -5.654235540895486030e-03
 -5.644291984614011048e-03
 -5.634456034323694421e-03
 -5.624727321983801105e-03
 -5.615105456916295174e-03
 -5.605590026493562257e-03
 -5.596180596826057403e-03
 -5.586876713442829288e-03
 -5.577677901972592604e-03
 -5.568583668815389569e-03
 -5.559593501812576562e-03
 -5.550706870909818957e-03
 -5.541923228812903335e-03
 -5.533242011640920714e-03
 -5.524662639566481001e-03
 -5.516184517454722665e-03
 -5.507807035490754413e-03
 -5.499529569799824907e-03
 -5.491351483060110360e-03
 -5.483272125107044488e-03
 -5.475290833525841942e-03
 -5.467406934239369201e-03
 -5.459619742082752643e-03
 -5.451928561371488340e-03
 -5.444332686455647177e-03
 -5.436831402269374537e-03
 -5.429423984866467087e-03
 -5.422109701947143250e-03
 -5.414887813373867563e-03
 -5.407757571676151745e-03
 -5.400718222548791560e-03
 -5.393769005333451209e-03
 -5.386909153492938467e-03
 -5.380137895076899865e-03
 -5.373454453172088127e-03
 -5.366858046342753812e-03
 -5.360347889067812108e-03
 -5.353923192152163120e-03
 -5.347583163146481071e-03
 -5.341327006738721440e-03
 -5.335153925144009608e-03
 -5.329063118488029487e-03
 -5.323053785166220568e-03
 -5.317125122207477447e-03
 -5.311276325618395286e-03
 -6.811537449863811454e-03
 -6.794915109881922467e-03
 -6.778296423713013955e-03
 -6.761683824129133095e-03
 -6.745079740258553419e-03
 -6.728486596141544651e-03
 -6.711906809284341052e-03
 -6.695342789223619577e-03
 -6.678796936103028291e-03
 -6.662271639262312348e-03
 -6.645769275833430904e-03
 -6.629292209363604749e-03
 -6.612842788446807694e-03
 -6.596423345375418065e-03
 -6.580036194818860741e-03
 -6.563683632514510230e-03
 -6.547367933992908305e-03
 -6.531091353319457178e-03
 -6.514856121868374192e-03
 -6.498664447121935313e-03
 -6.482518511502934240e-03
 -6.466420471230641814e-03
 -6.450372455217443825e-03
 -6.434376563991963706e-03
 -6.418434868658779227e-03
 -6.402549409894594395e-03
 -6.386722196977051916e-03
 -6.370955206852678410e-03
 -6.355250383243177432e-03
 -6.339609635787685042e-03
 -6.324034839224566655e-03
 -6.308527832616758063e-03
 -6.293090418608937760e-03
 -6.277724362733961942e-03
 -6.262431392753551630e-03
 -6.247213198043877029e-03
 -6.232071429019931177e-03
 -6.217007696602008804e-03
 -6.202023571724964331e-03
 -6.187120584886057068e-03
 -6.172300225735162689e-03
 -6.157563942707732635e-03
 -6.142913142696764840e-03
 -6.128349190763724211e-03
 -6.113873409894604941e-03
 -6.099487080791115776e-03
 -6.085191441702188925e-03
 -6.070987688296633142e-03
 -6.056876973572026049e-03
 -6.042860407799932436e-03
 -6.028939058512838324e-03
 -6.015113950519718373e-03
 -6.001386065966948097e-03
 -5.987756344424491860e-03
 -5.974225683011946154e-03
 -5.960794936554525934e-03
 -5.947464917774225070e-03
 -5.934236397508558906e-03
 -5.921110104962395808e-03
 -5.908086727987386412e-03
 -5.895166913391378452e-03
 -5.882351267273053588e-03
 -5.869640355384382266e-03
 -5.857034703518600692e-03
 -5.844534797919945582e-03
 -5.832141085721133204e-03
 -5.819853975396346857e-03
 -5.807673837242654721e-03
 -5.795601003874759939e-03
 -5.783635770744502587e-03
 -5.771778396672892428e-03
 -5.760029104402930589e-03
 -5.748388081165318499e-03
 -5.736855479262183664e-03
 -5.725431416661212053e-03
 -5.714115977602708500e-03
 -5.702909213222286978e-03
 -5.691811142178680033e-03
 -5.680821751294861353e-03
 -5.669940996207497620e-03
 -5.659168802022623672e-03
 -5.648505063978648613e-03
 -5.637949648119200408e-03
 -5.627502391963404814e-03
 -5.617163105187526762e-03
 -5.606931570305791201e-03
 -5.596807543357877439e-03
 -5.586790754592751464e-03
 -5.576880909157568879e-03
 -5.567077687786654155e-03
 -5.557380747488079899e-03
 -5.547789722231460420e-03
 -5.538304223631456205e-03
 -5.528923841632565547e-03
 -5.519648145186313755e-03
 -5.510476682930171011e-03
 -5.501408983857225890e-03
 -5.492444557984154513e-03
 -5.483582897014899725e-03
 -5.474823474995233440e-03
 -5.466165748964627556e-03
 -5.457609159600066220e-03
 -5.449153131852883629e-03
 -5.440797075579689029e-03
 -5.432540386162166939e-03
 -5.424382445124668189e-03
 -5.416322620736816439e-03
 -5.408360268614148363e-03
 -5.400494732303134406e-03
 -5.392725343863201057e-03
 -5.385051424436006380e-03
 -5.377472284805461661e-03
 -5.369987225950011850e-03
 -5.362595539580477903e-03
 -5.355296508675177342e-03
 -5.348089407997505020e-03
 -5.340973504607288841e-03
 -5.333948058361626110e-03
 -5.327012322403620187e-03
 -5.320165543641582236e-03
 -5.313406963218373670e-03
 -5.306735816968105070e-03
 -5.300151335864478931e-03
 -5.293652746458044067e-03
 -5.287239271299570484e-03
 -5.280910129359508987e-03
 -5.274664536428786896e-03
 -5.268501705516839481e-03
 -5.262420847232733914e-03
 -5.256421170159039473e-03
 -5.250501881215859264e-03
 -5.244662186013388482e-03
 -5.238901289193663609e-03
 -6.716382242324105134e-03
 -6.699983777995581653e-03
 -6.683588925606017035e-03
 -6.667200090013611011e-03
 -6.650819672471988339e-03
 -6.634450069194589364e-03
 -6.618093669923522278e-03
 -6.601752856510138649e-03
 -6.585430001504647725e-03
 -6.569127466757039395e-03
 -6.552847602031740964e-03
 -6.536592743637601073e-03
 -6.520365213078274831e-03
 -6.504167315715738210e-03
 -6.488001339459000157e-03
 -6.471869553473481342e-03
 -6.455774206913318138e-03
 -6.439717527679470616e-03
 -6.423701721204976359e-03
 -6.407728969264530304e-03
 -6.391801428820179792e-03
 -6.375921230890161696e-03
 -6.360090479453926748e-03
 -6.344311250387969087e-03
 -6.328585590436240117e-03
 -6.312915516216118135e-03
 -6.297303013257309068e-03
 -6.281750035080311059e-03
 -6.266258502311458298e-03
 -6.250830301834080921e-03
 -6.235467285981076239e-03
 -6.220171271764511969e-03
 -6.204944040145686686e-03
 -6.189787335345536476e-03
 -6.174702864196421684e-03
 -6.159692295530336779e-03
 -6.144757259612761667e-03
 -6.129899347615927648e-03
 -6.115120111131482419e-03
 -6.100421061725257686e-03
 -6.085803670535020610e-03
 -6.071269367903216370e-03
 -6.056819543057334089e-03
 -6.042455543823720826e-03
 -6.028178676387623350e-03
 -6.013990205085219948e-03
 -5.999891352244035407e-03
 -5.985883298051680561e-03
 -5.971967180470122254e-03
 -5.958144095183057036e-03
 -5.944415095583074210e-03
 -5.930781192791134172e-03
 -5.917243355713574897e-03
 -5.903802511133206601e-03
 -5.890459543833792035e-03
 -5.877215296756114343e-03
 -5.864070571188203379e-03
 -5.851026126984149381e-03
 -5.838082682814768783e-03
 -5.825240916444074900e-03
 -5.812501465040043232e-03
 -5.799864925504332087e-03
 -5.787331854834851935e-03
 -5.774902770509337917e-03
 -5.762578150893388033e-03
 -5.750358435675388680e-03
 -5.738244026314517389e-03
 -5.726235286520907353e-03
 -5.714332542745598383e-03
 -5.702536084695182528e-03
 -5.690846165860749019e-03
 -5.679263004067538340e-03
 -5.667786782033542269e-03
 -5.656417647950599814e-03
 -5.645155716071982750e-03
 -5.634001067316497455e-03
 -5.622953749884146944e-03
 -5.612013779879380590e-03
 -5.601181141945767855e-03
 -5.590455789912318098e-03
 -5.579837647439920070e-03
 -5.569326608681843087e-03
 -5.558922538947236661e-03
 -5.548625275368209743e-03
 -5.538434627574499378e-03
 -5.528350378367672714e-03
 -5.518372284402052810e-03
 -5.508500076862082179e-03
 -5.498733462145912257e-03
 -5.489072122547055191e-03
 -5.479515716934088392e-03
 -5.470063881432993269e-03
 -5.460716230103024316e-03
 -5.451472355614749195e-03
 -5.442331829922239343e-03
 -5.433294204932945584e-03
 -5.424359013171514352e-03
 -5.415525768443196254e-03
 -5.406793966487232275e-03
 -5.398163085627178184e-03
 -5.389632587416384735e-03
 -5.381201917273134572e-03
 -5.372870505112656639e-03
 -5.364637765969930069e-03
 -5.356503100616634254e-03
 -5.348465896165739003e-03
 -5.340525526674849179e-03
 -5.332681353734399984e-03
 -5.324932727050821560e-03
 -5.317278985019915395e-03
 -5.309719455289664547e-03
 -5.302253455316639254e-03
 -5.294880292907038107e-03
 -5.287599266756002302e-03
 -5.280409666969494188e-03
 -5.273310775580580465e-03
 -5.266301867052773471e-03
 -5.259382208775846383e-03
 -5.252551061549646724e-03
 -5.245807680055468436e-03
 -5.239151313322655198e-03
 -5.232581205178880868e-03
 -5.226096594691759765e-03
 -5.219696716602659388e-03
 -5.213380801744515493e-03
 -5.207148077454951292e-03
 -5.200997767975004508e-03
 -5.194929094839130512e-03
 -5.188941277251684150e-03
 -5.183033532461555834e-03
 -5.177205076113153802e-03
 -5.171455122599942500e-03
 -5.165782885401310268e-03
 -6.620215068674399107e-03
 -6.604043566697654494e-03
 -6.587875633897139621e-03
 -6.571713646628102486e-03
 -6.555559977677003457e-03
 -6.539416994841796768e-03
 -6.523287059514082907e-03
 -6.507172525275828345e-03
 -6.491075736500862697e-03
 -6.474999026972018748e-03
 -6.458944718508893325e-03
 -6.442915119612929384e-03
 -6.426912524130141101e-03
 -6.410939209928545081e-03
 -6.394997437602311513e-03
 -6.379089449191910344e-03
 -6.363217466930405804e-03
 -6.347383692015149022e-03
 -6.331590303403520845e-03
 -6.315839456639406151e-03
 -6.300133282704351544e-03
 -6.284473886905101933e-03
 -6.268863347785104921e-03
 -6.253303716073578024e-03
 -6.237797013668135854e-03
 -6.222345232648846154e-03
 -6.206950334329690809e-03
 -6.191614248345410007e-03
 -6.176338871777599729e-03
 -6.161126068313588569e-03
 -6.145977667450648954e-03
 -6.130895463730605052e-03
 -6.115881216022273949e-03
 -6.100936646836667941e-03
 -6.086063441685576197e-03
 -6.071263248481887330e-03
 -6.056537676975468597e-03
 -6.041888298233611884e-03
 -6.027316644162027115e-03
 -6.012824207063353389e-03
 -5.998412439239811031e-03
 -5.984082752632619365e-03
 -5.969836518504955183e-03
 -5.955675067162292773e-03
 -5.941599687712271344e-03
 -5.927611627865978124e-03
 -5.913712093773739430e-03
 -5.899902249904223454e-03
 -5.886183218954265869e-03
 -5.872556081805170407e-03
 -5.859021877502941685e-03
 -5.845581603286006955e-03
 -5.832236214640657002e-03
 -5.818986625390881393e-03
 -5.805833707825147280e-03
 -5.792778292851927767e-03
 -5.779821170188593343e-03
 -5.766963088579779746e-03
 -5.754204756046485576e-03
 -5.741546840163106770e-03
 -5.728989968362705430e-03
 -5.716534728267576998e-03
 -5.704181668049160270e-03
 -5.691931296807057998e-03
 -5.679784084977518299e-03
 -5.667740464760492348e-03
 -5.655800830569895736e-03
 -5.643965539504761098e-03
 -5.632234911839060706e-03
 -5.620609231530734190e-03
 -5.609088746746849173e-03
 -5.597673670406343345e-03
 -5.586364180738733788e-03
 -5.575160421856158524e-03
 -5.564062504336626108e-03
 -5.553070505824705266e-03
 -5.542184471639977419e-03
 -5.531404415395123862e-03
 -5.520730319625450841e-03
 -5.510162136428352862e-03
 -5.499699788104914916e-03
 -5.489343167814214608e-03
 -5.479092140228807375e-03
 -5.468946542199436094e-03
 -5.458906183418064072e-03
 -5.448970847090707503e-03
 -5.439140290607180975e-03
 -5.429414246216715013e-03
 -5.419792421701164972e-03
 -5.410274501050476789e-03
 -5.400860145138157951e-03
 -5.391548992393205286e-03
 -5.382340659472269542e-03
 -5.373234741928384350e-03
 -5.364230814878958795e-03
 -5.355328433665609844e-03
 -5.346527134513960090e-03
 -5.337826435188168864e-03
 -5.329225835639434319e-03
 -5.320724818647225296e-03
 -5.312322850459085498e-03
 -5.304019381419946937e-03
 -5.295813846594589480e-03
 -5.287705666387503521e-03
 -5.279694247149366651e-03
 -5.271778981777846054e-03
 -5.263959250311990232e-03
 -5.256234420516200240e-03
 -5.248603848455355575e-03
 -5.241066879061629866e-03
 -5.233622846692502842e-03
 -5.226271075678388250e-03
 -5.219010880859853430e-03
 -5.211841568119520221e-03
 -5.204762434897968262e-03
 -5.197772770703432306e-03
 -5.190871857610602873e-03
 -5.184058970750418487e-03
 -5.177333378785585472e-03
 -5.170694344379887439e-03
 -5.164141124656801071e-03
 -5.157672971645230718e-03
 -5.151289132714810363e-03
 -5.144988851005297993e-03
 -5.138771365839034724e-03
 -5.132635913128372369e-03
 -5.126581725770418436e-03
 -5.120608034029485410e-03
 -5.114714065913314976e-03
 -5.108899047537602406e-03
 -5.103162203477250303e-03
 -5.097502757110853461e-03
 -5.091919930956567350e-03
 -6.523035924016190763e-03
 -6.507094462650829698e-03
 -6.491156526808951159e-03
 -6.475224463750236907e-03
 -6.459300617202988655e-03
 -6.443387325958158107e-03
 -6.427486922470740903e-03
 -6.411601731465196852e-03
 -6.395734068557550403e-03
 -6.379886238883097742e-03
 -6.364060535740500082e-03
 -6.348259239251185897e-03
 -6.332484615035129799e-03
 -6.316738912904843427e-03
 -6.301024365580346065e-03
 -6.285343187424308371e-03
 -6.269697573203660175e-03
 -6.254089696870163140e-03
 -6.238521710374487876e-03
 -6.222995742499460615e-03
 -6.207513897731099968e-03
 -6.192078255148356601e-03
 -6.176690867357424036e-03
 -6.161353759445528655e-03
 -6.146068927975061567e-03
 -6.130838340011298196e-03
 -6.115663932182748876e-03
 -6.100547609779420101e-03
 -6.085491245887196185e-03
 -6.070496680558317912e-03
 -6.055565720021562071e-03
 -6.040700135931248438e-03
 -6.025901664651108630e-03
 -6.011172006583698386e-03
 -5.996512825533959617e-03
 -5.981925748115816607e-03
 -5.967412363196482501e-03
 -5.952974221384999508e-03
 -5.938612834556240318e-03
 -5.924329675416315638e-03
 -5.910126177111291700e-03
 -5.896003732870862442e-03
 -5.881963695697181756e-03
 -5.868007378086226127e-03
 -5.854136051795630520e-03
 -5.840350947645701722e-03
 -5.826653255360442207e-03
 -5.813044123447780494e-03
 -5.799524659114891484e-03
 -5.786095928219391754e-03
 -5.772758955260166337e-03
 -5.759514723398561839e-03
 -5.746364174518562261e-03
 -5.733308209315980675e-03
 -5.720347687425531187e-03
 -5.707483427575378923e-03
 -5.694716207776131210e-03
 -5.682046765537794239e-03
 -5.669475798118131689e-03
 -5.657003962797148289e-03
 -5.644631877181563277e-03
 -5.632360119532232520e-03
 -5.620189229121753081e-03
 -5.608119706611618994e-03
 -5.596152014455933049e-03
 -5.584286577326851193e-03
 -5.572523782560560857e-03
 -5.560863980623686510e-03
 -5.549307485601291667e-03
 -5.537854575698535758e-03
 -5.526505493764314290e-03
 -5.515260447828516585e-03
 -5.504119611653588914e-03
 -5.493083125303784009e-03
 -5.482151095724451147e-03
 -5.471323597332735517e-03
 -5.460600672624141630e-03
 -5.449982332783581858e-03
 -5.439468558310471026e-03
 -5.429059299648179501e-03
 -5.418754477824715143e-03
 -5.408553985096193825e-03
 -5.398457685599681796e-03
 -5.388465416007207250e-03
 -5.378576986186840887e-03
 -5.368792179865628303e-03
 -5.359110755293617842e-03
 -5.349532445912199251e-03
 -5.340056961021542870e-03
 -5.330683986448761340e-03
 -5.321413185214832718e-03
 -5.312244198201446395e-03
 -5.303176644816211434e-03
 -5.294210123652594822e-03
 -5.285344213152794006e-03
 -5.276578472259014531e-03
 -5.267912441066950786e-03
 -5.259345641473830990e-03
 -5.250877577817074718e-03
 -5.242507737513487330e-03
 -5.234235591686598431e-03
 -5.226060595792775612e-03
 -5.217982190236732098e-03
 -5.209999800979759829e-03
 -5.202112840145620663e-03
 -5.194320706611238805e-03
 -5.186622786594002714e-03
 -5.179018454231042179e-03
 -5.171507072144509651e-03
 -5.164087992005796449e-03
 -5.156760555084629986e-03
 -5.149524092788244044e-03
 -5.142377927198294764e-03
 -5.135321371590408600e-03
 -5.128353730945453895e-03
 -5.121474302455708040e-03
 -5.114682376015537886e-03
 -5.107977234702748212e-03
 -5.101358155254163106e-03
 -5.094824408524449046e-03
 -5.088375259939788460e-03
 -5.082009969937730139e-03
 -5.075727794401064391e-03
 -5.069527985074775110e-03
 -5.063409789978990695e-03
 -5.057372453810009619e-03
 -5.051415218324689996e-03
 -5.045537322726645867e-03
 -5.039738004031893079e-03
 -5.034016497427872862e-03
 -5.028372036622758348e-03
 -5.022803854186352022e-03
 -5.017311181875940516e-03
 -6.424844803165979772e-03
 -6.409136451562834173e-03
 -6.393431580939477714e-03
 -6.377732508865340162e-03
 -6.362041549417695938e-03
 -6.346361011790984004e-03
 -6.330693198911344077e-03
 -6.315040406061910722e-03
 -6.299404919514492961e-03
 -6.283789015176244504e-03
 -6.268194957248358207e-03
 -6.252624996898209844e-03
 -6.237081370951264719e-03
 -6.221566300599157100e-03
 -6.206081990130160597e-03
 -6.190630625675600657e-03
 -6.175214373987631712e-03
 -6.159835381232937369e-03
 -6.144495771818784050e-03
 -6.129197647242650392e-03
 -6.113943084969943563e-03
 -6.098734137345547882e-03
 -6.083572830529648291e-03
 -6.068461163470709012e-03
 -6.053401106910561054e-03
 -6.038394602420252451e-03
 -6.023443561472344165e-03
 -6.008549864552656210e-03
 -5.993715360299524744e-03
 -5.978941864689062309e-03
 -5.964231160252881671e-03
 -5.949584995333969707e-03
 -5.935005083383330764e-03
 -5.920493102294490349e-03
 -5.906050693776515766e-03
 -5.891679462766511235e-03
 -5.877380976884752535e-03
 -5.863156765923552456e-03
 -5.849008321383365391e-03
 -5.834937096041945340e-03
 -5.820944503567119198e-03
 -5.807031918169548029e-03
 -5.793200674288702216e-03
 -5.779452066327674283e-03
 -5.765787348418129933e-03
 -5.752207734227380784e-03
 -5.738714396801618267e-03
 -5.725308468449402666e-03
 -5.711991040658804045e-03
 -5.698763164050693088e-03
 -5.685625848369612982e-03
 -5.672580062509600778e-03
 -5.659626734569917113e-03
 -5.646766751949633747e-03
 -5.634000961470262032e-03
 -5.621330169534026477e-03
 -5.608755142308866071e-03
 -5.596276605945999828e-03
 -5.583895246826021605e-03
 -5.571611711832683694e-03
 -5.559426608653673593e-03
 -5.547340506108330155e-03
 -5.535353934499453316e-03
 -5.523467385989741692e-03
 -5.511681315001380928e-03
 -5.499996138638100183e-03
 -5.488412237128154590e-03
 -5.476929954285951647e-03
 -5.465549597994206338e-03
 -5.454271440705848670e-03
 -5.443095719957453255e-03
 -5.432022638905725960e-03