<VTKFile type="UnstructuredGrid" byte_order="BigEndian">
<UnstructuredGrid><Piece NumberOfPoints="660" NumberOfCells="608">
<Points>
 <DataArray type="Float32" NumberOfComponents="3" format="ascii">
 -3.848847700282931328e-03 1.094200368970632553e-02 0.000000000000000000e+00
 -3.841737285256385803e-03 1.091203466057777405e-02 0.000000000000000000e+00
 -3.833710914477705956e-03 1.087820623070001602e-02 0.000000000000000000e+00
 -3.824688028544187546e-03 1.084017753601074219e-02 0.000000000000000000e+00
 -3.814591793343424797e-03 1.079762447625398636e-02 0.000000000000000000e+00
 -3.803353291004896164e-03 1.075025741010904312e-02 0.000000000000000000e+00
 -3.790915245190262794e-03 1.069783419370651245e-02 0.000000000000000000e+00
 -3.777237143367528915e-03 1.064018625766038895e-02 0.000000000000000000e+00
 -3.762301057577133179e-03 1.057723443955183029e-02 0.000000000000000000e+00
 -3.746115835383534431e-03 1.050901785492897034e-02 0.000000000000000000e+00
 -3.728721756488084793e-03 1.043570693582296371e-02 0.000000000000000000e+00
 -3.710195189341902733e-03 1.035762298852205276e-02 0.000000000000000000e+00
 -3.690649056807160378e-03 1.027524191886186600e-02 0.000000000000000000e+00
 -3.670232836157083511e-03 1.018919330090284348e-02 0.000000000000000000e+00
 -3.649130230769515038e-03 1.010025106370449066e-02 0.000000000000000000e+00
 -3.627552650868892670e-03 1.000930834561586380e-02 0.000000000000000000e+00
 -3.605732228606939316e-03 9.917341172695159912e-03 0.000000000000000000e+00
 -3.583911806344985962e-03 9.825374931097030640e-03 0.000000000000000000e+00
 -3.562334226444363594e-03 9.734431281685829163e-03 0.000000000000000000e+00
 -3.541231388226151466e-03 9.645489044487476349e-03 0.000000000000000000e+00
 -3.520815167576074600e-03 9.559440426528453827e-03 0.000000000000000000e+00
 -3.501269035041332245e-03 9.477059356868267059e-03 0.000000000000000000e+00
 -3.482742467895150185e-03 9.398975409567356110e-03 0.000000000000000000e+00
 -3.465348621830344200e-03 9.325664490461349487e-03 0.000000000000000000e+00
 -3.449163166806101799e-03 9.257447905838489532e-03 0.000000000000000000e+00
 -3.434227081015706062e-03 9.194497019052505493e-03 0.000000000000000000e+00
 -3.420549212023615837e-03 9.136848151683807373e-03 0.000000000000000000e+00
 -3.408110933378338814e-03 9.084424935281276703e-03 0.000000000000000000e+00
 -3.396872431039810181e-03 9.037057869136333466e-03 0.000000000000000000e+00
 -3.386776428669691086e-03 8.994505740702152252e-03 0.000000000000000000e+00
 -3.377753542736172676e-03 8.956476114690303802e-03 0.000000000000000000e+00
 -3.369727171957492828e-03 8.922647684812545776e-03 0.000000000000000000e+00
 -3.362616524100303650e-03 8.892678655683994293e-03 0.000000000000000000e+00
 -3.762526903301477432e-03 1.101396977901458740e-02 0.000000000000000000e+00
 -3.755495883524417877e-03 1.098371110856533051e-02 0.000000000000000000e+00
 -3.747559385374188423e-03 1.094955485314130783e-02 0.000000000000000000e+00
 -3.738637315109372139e-03 1.091115828603506088e-02 0.000000000000000000e+00
 -3.728654002770781517e-03 1.086819451302289963e-02 0.000000000000000000e+00
 -3.717541228979825974e-03 1.082036923617124557e-02 0.000000000000000000e+00
 -3.705242183059453964e-03 1.076743938028812408e-02 0.000000000000000000e+00
 -3.691717283800244331e-03 1.070923358201980591e-02 0.000000000000000000e+00
 -3.676948137581348419e-03 1.064567361027002335e-02 0.000000000000000000e+00
 -3.660943824797868729e-03 1.057679671794176102e-02 0.000000000000000000e+00
 -3.643744625151157379e-03 1.050277799367904663e-02 0.000000000000000000e+00
 -3.625425277277827263e-03 1.042393874377012253e-02 0.000000000000000000e+00
 -3.606097539886832237e-03 1.034076139330863953e-02 0.000000000000000000e+00
 -3.585909726098179817e-03 1.025388110429048538e-02 0.000000000000000000e+00
 -3.565042978152632713e-03 1.016407925635576248e-02 0.000000000000000000e+00
 -3.543706843629479408e-03 1.007225643843412399e-02 0.000000000000000000e+00
 -3.522130427882075310e-03 9.979400783777236938e-03 0.000000000000000000e+00
 -3.500554244965314865e-03 9.886544197797775269e-03 0.000000000000000000e+00
 -3.479217877611517906e-03 9.794721379876136780e-03 0.000000000000000000e+00
 -3.458351129665970802e-03 9.704919531941413879e-03 0.000000000000000000e+00
 -3.438163315877318382e-03 9.618039242923259735e-03 0.000000000000000000e+00
 -3.418835811316967010e-03 9.534861892461776733e-03 0.000000000000000000e+00
 -3.400516463443636894e-03 9.456022642552852631e-03 0.000000000000000000e+00
 -3.383317030966281891e-03 9.382003918290138245e-03 0.000000000000000000e+00
 -3.367312718182802200e-03 9.313127025961875916e-03 0.000000000000000000e+00
 -3.352543571963906288e-03 9.249567054212093353e-03 0.000000000000000000e+00
 -3.339018672704696655e-03 9.191361255943775177e-03 0.000000000000000000e+00
 -3.326719626784324646e-03 9.138431400060653687e-03 0.000000000000000000e+00
 -3.315606852993369102e-03 9.090606123208999634e-03 0.000000000000000000e+00
 -3.305623540654778481e-03 9.047642350196838379e-03 0.000000000000000000e+00
 -3.296701703220605850e-03 9.009245783090591431e-03 0.000000000000000000e+00
 -3.288764972239732742e-03 8.975089527666568756e-03 0.000000000000000000e+00
 -3.281733952462673187e-03 8.944830857217311859e-03 0.000000000000000000e+00
 -3.675431245937943459e-03 1.108468882739543915e-02 0.000000000000000000e+00
 -3.668483812361955643e-03 1.105414424091577530e-02 0.000000000000000000e+00
 -3.660641377791762352e-03 1.101966481655836105e-02 0.000000000000000000e+00
 -3.651825478300452232e-03 1.098090596497058868e-02 0.000000000000000000e+00
 -3.641960909590125084e-03 1.093753613531589508e-02 0.000000000000000000e+00
 -3.630980150774121284e-03 1.088925916701555252e-02 0.000000000000000000e+00
 -3.618827089667320251e-03 1.083582919090986252e-02 0.000000000000000000e+00
 -3.605462843552231789e-03 1.077707298099994659e-02 0.000000000000000000e+00
 -3.590869251638650894e-03 1.071291230618953705e-02 0.000000000000000000e+00
 -3.575054928660392761e-03 1.064338441938161850e-02 0.000000000000000000e+00
 -3.558059921488165855e-03 1.056866627186536789e-02 0.000000000000000000e+00
 -3.539958270266652107e-03 1.048908196389675140e-02 0.000000000000000000e+00
 -3.520860336720943451e-03 1.040511857718229294e-02 0.000000000000000000e+00
 -3.500912338495254517e-03 1.031741686165332794e-02 0.000000000000000000e+00
 -3.480293555185198784e-03 1.022676657885313034e-02 0.000000000000000000e+00
 -3.459210740402340889e-03 1.013407576829195023e-02 0.000000000000000000e+00
 -3.437890671193599701e-03 1.004034280776977539e-02 0.000000000000000000e+00
 -3.416570601984858513e-03 9.946609847247600555e-03 0.000000000000000000e+00
 -3.395487787202000618e-03 9.853919036686420441e-03 0.000000000000000000e+00
 -3.374869003891944885e-03 9.763268753886222839e-03 0.000000000000000000e+00
 -3.354921005666255951e-03 9.675567038357257843e-03 0.000000000000000000e+00
 -3.335823072120547295e-03 9.591603651642799377e-03 0.000000000000000000e+00
 -3.317721420899033546e-03 9.512019343674182892e-03 0.000000000000000000e+00
 -3.300726413726806641e-03 9.437301196157932281e-03 0.000000000000000000e+00
 -3.284912090748548508e-03 9.367773309350013733e-03 0.000000000000000000e+00
 -3.270318498834967613e-03 9.303612634539604187e-03 0.000000000000000000e+00
 -3.256954019889235497e-03 9.244856424629688263e-03 0.000000000000000000e+00
 -3.244801191613078117e-03 9.191426448523998260e-03 0.000000000000000000e+00
 -3.233820432797074318e-03 9.143149480223655701e-03 0.000000000000000000e+00
 -3.223955864086747169e-03 9.099779650568962097e-03 0.000000000000000000e+00
 -3.215139731764793396e-03 9.061020798981189728e-03 0.000000000000000000e+00
 -3.207297530025243759e-03 9.026541374623775482e-03 0.000000000000000000e+00
 -3.200350096449255943e-03 8.995996788144111633e-03 0.000000000000000000e+00
 -3.587558632716536522e-03 1.115412916988134384e-02 0.000000000000000000e+00
 -3.580698743462562561e-03 1.112330239266157150e-02 0.000000000000000000e+00
 -3.572955261915922165e-03 1.108850538730621338e-02 0.000000000000000000e+00
 -3.564250655472278595e-03 1.104938797652721405e-02 0.000000000000000000e+00
 -3.554510418325662613e-03 1.100561767816543579e-02 0.000000000000000000e+00
 -3.543668193742632866e-03 1.095689553767442703e-02 0.000000000000000000e+00
 -3.531668568029999733e-03 1.090297196060419083e-02 0.000000000000000000e+00
 -3.518472891300916672e-03 1.084367372095584869e-02 0.000000000000000000e+00
 -3.504063468426465988e-03 1.077892072498798370e-02 0.000000000000000000e+00
 -3.488448681309819221e-03 1.070875115692615509e-02 0.000000000000000000e+00
 -3.471668111160397530e-03 1.063334289938211441e-02 0.000000000000000000e+00
 -3.453794866800308228e-03 1.055302470922470093e-02 0.000000000000000000e+00
 -3.434937912970781326e-03 1.046828553080558777e-02 0.000000000000000000e+00
 -3.415241604670882225e-03 1.037977449595928192e-02 0.000000000000000000e+00
 -3.394882893189787865e-03 1.028828788548707962e-02 0.000000000000000000e+00
 -3.374065971001982689e-03 1.019474118947982788e-02 0.000000000000000000e+00
 -3.353015054017305374e-03 1.010014303028583527e-02 0.000000000000000000e+00
 -3.331963904201984406e-03 1.000554393976926804e-02 0.000000000000000000e+00
 -3.311147214844822884e-03 9.911998175084590912e-03 0.000000000000000000e+00
 -3.290788503363728523e-03 9.820510633289813995e-03 0.000000000000000000e+00
 -3.271092195063829422e-03 9.732000529766082764e-03 0.000000000000000000e+00
 -3.252235241234302521e-03 9.647261351346969604e-03 0.000000000000000000e+00
 -3.234361764043569565e-03 9.566942229866981506e-03 0.000000000000000000e+00
 -3.217581193894147873e-03 9.491533972322940826e-03 0.000000000000000000e+00
 -3.201966639608144760e-03 9.421365335583686829e-03 0.000000000000000000e+00
 -3.187556983903050423e-03 9.356612339615821838e-03 0.000000000000000000e+00
 -3.174361307173967361e-03 9.297314099967479706e-03 0.000000000000000000e+00
 -3.162361681461334229e-03 9.243390522897243500e-03 0.000000000000000000e+00
[...]
<CellData>
 <DataArray Name="pos.x" type="Float32" NumberOfComponents="1" format="ascii">
 -3.802108176662334724e-03
 -3.794582245069356638e-03
 -3.786105528857656131e-03
 -3.776599789993462415e-03
 -3.765992494280055378e-03
 -3.754220830490501842e-03
 -3.741236320567279533e-03
 -3.727009836603299535e-03
 -3.711536726701232265e-03
 -3.694841636237292375e-03
 -3.676982514616271118e-03
 -3.658053246818386128e-03
 -3.638184370865451232e-03
 -3.617541456475764031e-03
 -3.596320930389678133e-03
 -3.574743421241434113e-03
 -3.553045018836578032e-03
 -3.531467139847279096e-03
 -3.510245902208030452e-03
 -3.489601986778701013e-03
 -3.469731889458905604e-03
 -3.450801257277795724e-03
 -3.432940705009104258e-03
 -3.416244186598564863e-03
 -3.400769707744053134e-03
 -3.386541955122506550e-03
 -3.373556303094475076e-03
 -3.361783636576444901e-03
 -3.351175479468151454e-03
 -3.341669014530885412e-03
 -3.333191696353067762e-03
 -3.325665272832101747e-03
 -3.715441436801128570e-03
 -3.708002284338761043e-03
 -3.699623310707325294e-03
 -3.690227180065761264e-03
 -3.679742194633284051e-03
 -3.668106267466727990e-03
 -3.655271479490806736e-03
 -3.641209038614933585e-03
 -3.625914346475497211e-03
 -3.609411764096689002e-03
 -3.591758572442562119e-03
 -3.573047573627831635e-03
 -3.553407800131201059e-03
 -3.533002912178355784e-03
 -3.512027071246776738e-03
 -3.490698361720918821e-03
 -3.469250150995850050e-03
 -3.447921072054728996e-03
 -3.426944520390029589e-03
 -3.406538632553403941e-03
 -3.386897639104163513e-03
 -3.368185277492731586e-03
 -3.350530656864300367e-03
 -3.334026648222299539e-03
 -3.318730588761070483e-03
 -3.304666880759205092e-03
 -3.291830952080172443e-03
 -3.280194023441225688e-03
 -3.269708177719449042e-03
 -3.260311321964665544e-03
 -3.251931747189901536e-03
 -3.244492103498715103e-03
 -3.628000855592404365e-03
 -3.620652806805724037e-03
 -3.612376446651338786e-03
 -3.603095386440931941e-03
 -3.592738806491044788e-03
 -3.581245380236394282e-03
 -3.568567775440273111e-03
 -3.554677552563693162e-03
 -3.539570169444333260e-03
 -3.523269688584309677e-03
 -3.505832689195510950e-03
 -3.487350836563596346e-03
 -3.467951582596539087e-03
 -3.447796582869488719e-03
 -3.427077620709440605e-03
 -3.406010109460121203e-03
 -3.384824558437467962e-03
 -3.363756678212448739e-03
 -3.343037006165463631e-03
 -3.322881007746958642e-03
 -3.303480535285451512e-03
 -3.284997321491543026e-03
 -3.267558894851366452e-03
 -3.251256989459902578e-03
 -3.236148240694626879e-03
 -3.222256752264136565e-03
 -3.209578008201999233e-03
 -3.198083581760958419e-03
 -3.187726142652345333e-03
 -3.178444358308262722e-03
 -3.170167397849424189e-03
 -3.162818858545541050e-03
 -3.539784156873599427e-03
 -3.532531680122140243e-03
 -3.524362966323953648e-03
 -3.515202620398138935e-03
 -3.504980743825956979e-03
 -3.493636807715004306e-03
 -3.481124095448929947e-03
 -3.467414537333041169e-03
 -3.452503650163025409e-03
 -3.436415183278003840e-03
 -3.419204979720547218e-03
 -3.400963512190097095e-03
 -3.381816574503380361e-03
 -3.361923719263999223e-03
 -3.341474235008256438e-03
 -3.320680733033494914e-03
 -3.299770724395831561e-03
 -3.278976853918070655e-03
 -3.258526660685540002e-03
 -3.238632808036419428e-03
 -3.219484653421856440e-03
 -3.201241826484445187e-03
 -3.184030197523458981e-03
 -3.167940307962380589e-03
 -3.153028056939496081e-03
 -3.139317234948902323e-03
 -3.126803384949544511e-03
 -3.115458450020679344e-03
 -3.105235715490337577e-03
 -3.096074646468206966e-03
 -3.087905333251541977e-03
 -3.080652366732455297e-03
 -3.450789004579119315e-03
 -3.443636714167554874e-03
 -3.435580843986596467e-03
 -3.426547040534582908e-03
 -3.416466370932046744e-03
 -3.405279142471064665e-03
 -3.392939283879282692e-03
 -3.379419113162439314e-03
 -3.364714208922664311e-03
 -3.348847992217855035e-03
 -3.331875534380480171e-03
 -3.313886057948087129e-03
 -3.295003618594901772e-03
 -3.275385564422850920e-03
 -3.255218568729421023e-03
 -3.234712305481576931e-03
 -3.214091142717571785e-03
 -3.193584511494098992e-03
 -3.173416807838576065e-03
 -3.153797757685466736e-03
 -3.134914103149609443e-03
 -3.116923269263839700e-03
 -3.099949388077974984e-03
 -3.084081750757692360e-03
 -3.069375484653517460e-03
 -3.055854051921202789e-03
 -3.043513057289123826e-03
 -3.032324831518492386e-03
 -3.022243305277091778e-03
 -3.013208779865526616e-03
 -3.005152311233427135e-03
 -2.997999531869281146e-03
 -3.361013002736338868e-03
 -3.353965661045057219e-03
 -3.346027998524158005e-03
 -3.337126752762499624e-03
 -3.327194002420682042e-03
 -3.316170930723332400e-03
 -3.304012142418756310e-03
 -3.290690361643715603e-03
 -3.276201231746136890e-03
 -3.260567829901051332e-03
 -3.243844419051228681e-03
 -3.226118912149821862e-03
 -3.207513544110999256e-03
 -3.188183353748504263e-03
 -3.168312274809155418e-03
 -3.148106904305941235e-03
 -3.127788317856341777e-03
 -3.107582579982336689e-03
 -3.087710794244760259e-03
 -3.068379609539096265e-03
 -3.049773028317458601e-03
 -3.032046166199705087e-03
 -3.015321334352275527e-03
 -2.999686514246513967e-03
 -2.985196024753584455e-03
 -2.971872984080627719e-03
 -2.959713061660036986e-03
 -2.948688994363075477e-03
 -2.938755388873736957e-03
 -2.929853422432974943e-03
 -2.921915162546610042e-03
 -2.914867332813755960e-03
 -3.270453695462657503e-03
 -3.263516215078427450e-03
 -3.255702293442238899e-03
 -3.246939810305041717e-03
 -3.237161903216991769e-03
 -3.226310672336175044e-03
 -3.214341430075983840e-03
 -3.201227325716250478e-03
 -3.186964070384084441e-03
 -3.171574381278160007e-03
 -3.155111675116696861e-03
 -3.137662493974258896e-03
 -3.119347166783019865e-03
 -3.100318314979239216e-03
 -3.080757004528491671e-03
 -3.060866611463742681e-03
 -3.040864764866773109e-03
 -3.020974005138634365e-03
 -3.001411989250703759e-03
 -2.982382145018506320e-03
 -2.964065606981373252e-03
 -2.946615073235080411e-03
 -2.930150948819435202e-03
 -2.914759844197819128e-03
 -2.900495231911768331e-03
 -2.887379870115448690e-03
 -2.875409495971495855e-03
 -2.864557271469856357e-03
 -2.854778510955175829e-03
 -2.846015308612010863e-03
 -2.838200790854403591e-03
 -2.831262823468080805e-03
 -3.179108566961330682e-03
 -3.172286012808160204e-03
 -3.164601536862434242e-03
 -3.155984213692957559e-03
 -3.146368288555675095e-03
 -3.135696820815467994e-03
 -3.123925863176337751e-03
 -3.111029009663060681e-03
 -3.097002042309638173e-03
 -3.081867301747618498e-03
 -3.065677319464027439e-03
 -3.048517203461445328e-03
 -3.030505288828026778e-03
 -3.011791668183598069e-03
 -2.992554407507432446e-03
 -2.972993513361528797e-03
 -2.953323009399286356e-03
 -2.933761749426967106e-03
 -2.914523784923676863e-03
 -2.895809174115612176e-03
 -2.877796051399459515e-03
 -2.860634585880519366e-03
 -2.844443188582900482e-03
 -2.829307035744505101e-03
 -2.815278714551017799e-03
 -2.802380606498277096e-03
 -2.790608519598345230e-03
 -2.779936060557852782e-03
 -2.770319284007088500e-03
 -2.761701243349444848e-03
 -2.754016172728283255e-03
 -2.747193132776421572e-03
 -3.086975041517843032e-03
 -3.080272632987317294e-03
 -3.072723481518577476e-03
 -3.064257910759469929e-03
 -3.054811323977095743e-03
 -3.044327783304600753e-03
 -3.032764115357523306e-03
 -3.020094379105496205e-03
 -3.006314430713825231e-03
 -2.991446217150943096e-03
 -2.975541344477899714e-03
 -2.958683421507043824e-03
 -2.940988698943133254e-03
 -2.922604625754300026e-03
 -2.903706131698560299e-03
 -2.884489700849124025e-03
 -2.865165587693029904e-03
 -2.845948792013013387e-03
 -2.827049596045558711e-03
 -2.808664535386824930e-03
 -2.790968608025922153e-03
 -2.774109339208925568e-03
 -2.758203055371610812e-03
 -2.743333433378314715e-03
 -2.729552134840132222e-03
 -2.716881147481685268e-03
 -2.705316353377291549e-03
 -2.694831824145205602e-03
 -2.685384388321859772e-03
 -2.676918102094066627e-03
 -2.669368357644723820e-03
 -2.662665464721107773e-03
 -2.994050483495588888e-03
 -2.987473596577405136e-03
 -2.980065824752548432e-03
 -2.971758796636692936e-03
 -2.962489125322242175e-03
 -2.952201920579220276e-03
 -2.940854817564274651e-03
 -2.928422360998542660e-03
 -2.914900484500031891e-03
 -2.900310723766627487e-03
 -2.884703718034666194e-03
 -2.868161509856205580e-03
 -2.850798172299134469e-03
 -2.832758392401604156e-03
 -2.814213823380503406e-03
 -2.795357269212829596e-03
 -2.776395046569565990e-03
 -2.757538128757441257e-03
 -2.738992860105924840e-03
 -2.720952095946673355e-03
 -2.703587557504993476e-03
 -2.687044007849397759e-03
 -2.671435595534082334e-03
 -2.656844430944420993e-03
 -2.643321208689362357e-03
 -2.630887505093447692e-03
 -2.619539279602102477e-03
 -2.609251089545281711e-03
 -2.599980571994694230e-03
 -2.591672830792553402e-03
 -2.584264467981429829e-03
 -2.577687098319437174e-03
 -2.900332197331038919e-03
 -2.893886366743601227e-03
 -2.886626208509381845e-03
 -2.878484713750205370e-03
 -2.869399758727833507e-03
 -2.859317547042277471e-03
 -2.848196558043489344e-03
 -2.836011843625093221e-03
 -2.822759418278392163e-03
 -2.808460388304776824e-03
 -2.793164383496427646e-03
 -2.776951811097046890e-03
 -2.759934470533599409e-03
 -2.742254165146600347e-03
 -2.724079127150799782e-03
 -2.705598318168269973e-03
 -2.687013943425463000e-03
 -2.668532772208925211e-03
 -2.650357037295485163e-03
 -2.632675751461032842e-03
 -2.615657214664228632e-03
 -2.599443305980890691e-03
 -2.584145900032607836e-03
 -2.569845471635967549e-03
 -2.556591705744298490e-03
 -2.544405749131439624e-03
 -2.533283642018845094e-03
 -2.523200448862116928e-03
 -2.514114650919293745e-03
 -2.505972445885338608e-03
 -2.498711699013430720e-03
 -2.492265387619534579e-03
 -2.805817427529621461e-03
 -2.799508348850018782e-03
 -2.792402219332152519e-03
 -2.784433451814490989e-03
 -2.775541240621454912e-03
 -2.765672930719055046e-03
 -2.754787882338427443e-03
 -2.742861676590247454e-03
 -2.729890412359750520e-03
 -2.715894747900370054e-03
 -2.700923259704069487e-03
 -2.685054648653949216e-03
 -2.668398341744213434e-03
 -2.651093133313737853e-03
 -2.633303685918544218e-03
 -2.615214951852791285e-03
 -2.597024846224859577e-03
 -2.578935751596467003e-03
 -2.561145610497958091e-03
 -2.543839426139861675e-03
 -2.527181928507613549e-03
 -2.511311987325567669e-03
 -2.496339104436734197e-03
 -2.482342047987712991e-03
 -2.469369449380644579e-03
 -2.457442007158363965e-03
 -2.446555845821014787e-03
 -2.436686558985346265e-03
 -2.427793508783214482e-03
 -2.419824034302404340e-03
 -2.412717318908691542e-03
 -2.406407761696435256e-03
 -2.710503358659858281e-03
 -2.704336890454689044e-03
 -2.697391388357280300e-03
 -2.689602747827101164e-03
 -2.680911537715910658e-03
 -2.671266293250935953e-03
 -2.660627293283122224e-03
 -2.648970670815359481e-03
 -2.636292612749479777e-03
 -2.622613310107050049e-03
 -2.607980240970922663e-03
 -2.592470326780355310e-03
 -2.576190520481034911e-03
 -2.559276478523435806e-03
 -2.541889140896457129e-03
 -2.524209278817511094e-03
 -2.506430333491139681e-03
 -2.488750112821205580e-03
 -2.471362085282978547e-03
 -2.454447072729271616e-03
 -2.438166082207939532e-03
 -2.422654845141682979e-03
 -2.408020388916488289e-03
 -2.394339701869788953e-03
 -2.381660316697916443e-03
 -2.370002464495771666e-03
 -2.359362357643667550e-03
 -2.349716141585062642e-03
 -2.341024097062798914e-03
 -2.333234753458248052e-03
 -2.326288668723600940e-03
 -2.320121724647503103e-03
 -2.614387115348572842e-03
 -2.608369281303629834e-03
 -2.601591191308395661e-03
 -2.593990286063442910e-03
 -2.585508567003233678e-03
 -2.576095809889795019e-03
 -2.565713250995819462e-03
 -2.554337598531476392e-03
 -2.541965131140494060e-03
 -2.528615552889895875e-03
 -2.514335197075018551e-03
 -2.499199130551191510e-03
 -2.483311727738772654e-03
 -2.466805374683518452e-03
 -2.449837131592553108e-03
 -2.432583412018796999e-03
 -2.415232994298732554e-03
 -2.397978918448264319e-03
 -2.381009989896881816e-03
 -2.364502672503612790e-03
 -2.348614093099000034e-03
 -2.333476712215897496e-03
 -2.319194978235039530e-03
 -2.305844024480663626e-03
 -2.293470238512897944e-03
 -2.282093364217970682e-03
 -2.271709705557898359e-03
 -2.262295983106500825e-03
 -2.253813435017956029e-03
 -2.246211831246997144e-03
 -2.239433162398025024e-03
 -2.233414855587846203e-03
 -2.517465762275098926e-03
 -2.511602753325872534e-03
 -2.504999048490847563e-03
 -2.497593698070542552e-03
 -2.489330195748807022e-03
 -2.480159609491758722e-03
 -2.470044172872968343e-03
 -2.458961193272686009e-03
 -2.446907044906591368e-03
 -2.433900924618240171e-03
 -2.419987973251749337e-03
 -2.405241325854920540e-03
 -2.389762670948458387e-03
 -2.373680987981259278e-03
 -2.357149295801421341e-03
 -2.340339468809486331e-03
 -2.323435428263869677e-03
 -2.306625247697569134e-03
 -2.290092875254517817e-03
 -2.274010235256673004e-03
 -2.258530412667168145e-03
 -2.243782460855239975e-03
 -2.229868141741141261e-03
 -2.216860656339847673e-03
 -2.204805199352777127e-03
 -2.193721007145439227e-03
 -2.183604479064429199e-03
 -2.174432934763687042e-03
 -2.166168609686575531e-03
 -2.158762566036863048e-03
 -2.152158286750208583e-03
 -2.146294808645068854e-03
 -2.419736304165166167e-03
 -2.414034480626753472e-03
 -2.407612324785573816e-03
 -2.400410562660979831e-03
 -2.392374241485069851e-03
 -2.383455774510383814e-03
 -2.373618433581957746e-03
 -2.362840149869070445e-03
 -2.351117397094885410e-03
 -2.338468844057928382e-03
 -2.324938390185770330e-03
 -2.310597159385290294e-03
 -2.295544043968930983e-03
 -2.279904476873940208e-03
 -2.263827269595058457e-03
 -2.247479570929393749e-03
 -2.231040245535418059e-03
 -2.214692196434456684e-03
 -2.198614314929674997e-03
 -2.182973799292670190e-03
 -2.167919526542650983e-03
 -2.153577002878639436e-03
 -2.140045193360971040e-03
 -2.127395287280342984e-03
 -2.115671237447729405e-03
 -2.104891751837905962e-03
 -2.095053329087117732e-03
 -2.086133912533585585e-03
 -2.078096775878390378e-03
 -2.070894326664456976e-03
 -2.064471601471063941e-03
 -2.058769312954070434e-03
 -2.321195685785027579e-03
 -2.315661579482037984e-03
 -2.309428329642693439e-03
 -2.302438405906298124e-03
 -2.294638472004502210e-03
 -2.285982340989969105e-03
 -2.276434365054431051e-03
 -2.265973124439264134e-03
 -2.254595196418278207e-03
 -2.242318700363491249e-03
 -2.229186244002737041e-03
 -2.215266858632547464e-03
 -2.200656527077730906e-03
 -2.185476992079826708e-03
 -2.169872687313355742e-03
 -2.154005844495682220e-03
 -2.138050066784829683e-03
 -2.122182877159971195e-03
 -2.106577905145347231e-03
 -2.091397431416605179e-03
 -2.076785954490102670e-03
 -2.062865289608010414e-03
 -2.049731491589458325e-03
 -2.037453656440222326e-03
 -2.026074444723289982e-03
 -2.015612014586985658e-03
 -2.006062967965813269e-03
 -1.997405897149040228e-03
 -1.989605156168667167e-03
 -1.982614552428625145e-03
 -1.976380739118389126e-03
 -1.970846172651197648e-03
 -2.221840791934752250e-03
 -2.216481108331288131e-03
 -2.210444317074786776e-03
 -2.203674701130218638e-03
 -2.196120605352982341e-03
 -2.187737298558353749e-03
 -2.178490256478523689e-03
 -2.168358734382884370e-03
 -2.157339417247356329e-03
 -2.145449853069622114e-03
 -2.132731306260511866e-03
 -2.119250631874499378e-03
 -2.105100786961603895e-03
 -2.090399676568357925e-03
 -2.075287181553922382e-03
 -2.059920419992634227e-03
 -2.044467523195939163e-03
 -2.029100419000381527e-03
 -2.013987264763534082e-03
 -1.999285226924335610e-03
 -1.985134250398942410e-03
 -1.971652311858766195e-03
 -1.958932439481459939e-03
 -1.947041552254214847e-03
 -1.936020966792043009e-03
 -1.925888269408298136e-03
 -1.916640169449078737e-03
 -1.908255934092059972e-03
 -1.900701040891471282e-03
 -1.893930753084046344e-03
 -1.887893405110518561e-03
 -1.882533266868255395e-03
 -2.121668447441557494e-03
 -2.116490067771020084e-03
 -2.110657485650090179e-03
 -2.104116868901574882e-03
 -2.096818309822411509e-03
 -2.088718590419522125e-03
 -2.079784354291455868e-03
 -2.069995558372451396e-03
 -2.059348999602147491e-03
 -2.047861632082586571e-03
 -2.035573323940270598e-03
 -2.022548668166963045e-03
 -2.008877476706947413e-03
 -1.994673665550024139e-03
 -1.980072383161859701e-03
 -1.965225432261017910e-03
 -1.950295256454194362e-03
 -1.935447967696512627e-03
 -1.920846035274552084e-03
 -1.906641309592033585e-03
 -1.892969002273076247e-03
 -1.879943099930040827e-03
 -1.867653484642078573e-03
 -1.856164812444558018e-03
 -1.845517002945055085e-03
 -1.835727048033413290e-03
 -1.826791768686348433e-03
 -1.818691133586137479e-03
 -1.811391788132507910e-03
 -1.804850508834241656e-03
 -1.799017377719748035e-03
 -1.793838549726040153e-03
 </DataArray>
 <DataArray Name="pos.y" type="Float32" NumberOfComponents="1" format="ascii">
 1.096297060265080496e-02
 1.093091837680265806e-02
 1.089481684982044479e-02
 1.085433281337012945e-02
 1.080915735121740565e-02
 1.075902295632793527e-02
 1.070372316527252315e-02
 1.064313392506924597e-02
 1.057723542373036063e-02
 1.050613262356573339e-02
 1.043007232557111377e-02
 1.034945437693504840e-02
 1.026483472665959927e-02
 1.017691852040500215e-02
 1.008654232095024944e-02
 9.994645764634378302e-03
 9.902234335452937339e-03
 9.810336204019446532e-03
 9.719956974127230351e-03
 9.632036504540315847e-03
 9.547411652579565478e-03
 9.466787893165566625e-03
 9.390721502178591557e-03
 9.319612620525503932e-03
 9.253708288948432267e-03
 9.193113645653490026e-03
 9.137808990482516186e-03
 9.087670325067994173e-03
 9.042491194316026534e-03
 9.002004065589945883e-03
 8.965899974891684138e-03
 8.933845653968605985e-03
 1.103416748009985841e-02
 1.100180890086023197e-02
 1.096536231859597532e-02
 1.092449134042430305e-02
 1.087888409771003463e-02
 1.082827052672256582e-02
 1.077244219065332659e-02
 1.071127385062002960e-02
 1.064474550481205560e-02
 1.057296311800698038e-02
 1.049617584904657432e-02
 1.041478736549906157e-02
 1.032935892857076571e-02
 1.024060242209628643e-02
 1.014936240324650074e-02
 1.005658748826051413e-02
 9.963292770912445320e-03
 9.870516249056203797e-03
 9.779273138682882671e-03
 9.690512282947236905e-03
 9.605078539509207675e-03
 9.523684128113654376e-03
 9.446890643448099811e-03
 9.375102052730590468e-03
 9.308567759391620997e-03
 9.247393907655455589e-03
 9.191560609793675285e-03
 9.140942682634824526e-03
 9.095331697862753598e-03
 9.054457565617138326e-03
 9.018008368519542239e-03
 8.985647652549787895e-03
 1.110410362557750184e-02
 1.107144283933534680e-02
 1.103465587211342920e-02
 1.099340318960876500e-02
 1.094737001076629551e-02
 1.089628374977547921e-02
 1.083993402315767095e-02
 1.077819442215757761e-02
 1.071104475766052055e-02
 1.063859198326236669e-02
 1.056108758362265219e-02
 1.047893899483598283e-02
 1.039271271824733500e-02
 1.030312728449500267e-02
 1.021103513678283184e-02
 1.011739374958803804e-02
 1.002322769633336337e-02
 9.929584669106471598e-03
 9.837489366071414110e-03
 9.747899493311043898e-03
 9.661667800728843125e-03
 9.579513161815916139e-03
 9.502002418294507383e-03
 9.429543312104443284e-03
 9.362387577551287837e-03
 9.300642351385703110e-03
 9.244287560930632142e-03
 9.193196854287386324e-03
 9.147159856635360062e-03
 9.105903955483440892e-03
 9.069114320013744318e-03
 9.036451353508787379e-03
 1.117274688538481831e-02
 1.113978823609912579e-02
 1.110266577677696681e-02
 1.106103687687760850e-02
 1.101458388481331950e-02
 1.096303172896096953e-02
 1.090616810714967362e-02
 1.084386545754586866e-02
 1.077610340637108130e-02
 1.070298988173905112e-02
 1.062477866057596858e-02
 1.054188089317889543e-02
 1.045486824553575576e-02
 1.036446579936495249e-02
 1.027153377038246551e-02
 1.017703836384792684e-02
 1.008201349649988886e-02
 9.987516415315261450e-03
 9.894581164410382393e-03
 9.804174185542835138e-03
 9.717156007609958901e-03
 9.634252062431368502e-03
 9.556034363567096276e-03
 9.482914373629228524e-03
 9.415146124468660310e-03
 9.352837731226568141e-03
 9.295968939022326849e-03
 9.244412244074398308e-03
 9.197955353046039298e-03
 9.156323167059131352e-03
 9.119197983698586890e-03
 9.086237108679404498e-03
 1.124006470136261482e-02
 1.120681273332379060e-02