<VTKFile type="UnstructuredGrid" byte_order="BigEndian">
<UnstructuredGrid><Piece NumberOfPoints="2546" NumberOfCells="2394">
<Points>
 <DataArray type="Float32" NumberOfComponents="3" format="ascii">
 -1.059327274560928345e-02 5.436241626739501953e-03 0.000000000000000000e+00
 -1.056892238557338715e-02 5.419175140559673309e-03 0.000000000000000000e+00
 -1.054457481950521469e-02 5.402110517024993896e-03 0.000000000000000000e+00
 -1.052023284137248993e-02 5.385050550103187561e-03 0.000000000000000000e+00
 -1.049590110778808594e-02 5.367997102439403534e-03 0.000000000000000000e+00
 -1.047158148139715195e-02 5.350952502340078354e-03 0.000000000000000000e+00
 -1.044727861881256104e-02 5.333919078111648560e-03 0.000000000000000000e+00
 -1.042299345135688782e-02 5.316898692399263382e-03 0.000000000000000000e+00
 -1.039873063564300537e-02 5.299893673509359360e-03 0.000000000000000000e+00
 -1.037449203431606293e-02 5.282905884087085724e-03 0.000000000000000000e+00
 -1.035028230398893356e-02 5.265937652438879013e-03 0.000000000000000000e+00
 -1.032610330730676651e-02 5.248991772532463074e-03 0.000000000000000000e+00
 -1.030195876955986023e-02 5.232069641351699829e-03 0.000000000000000000e+00
 -1.027785055339336395e-02 5.215173121541738510e-03 0.000000000000000000e+00
 -1.025378331542015076e-02 5.198305472731590271e-03 0.000000000000000000e+00
 -1.022975984960794449e-02 5.181467626243829727e-03 0.000000000000000000e+00
 -1.020578108727931976e-02 5.164662376046180725e-03 0.000000000000000000e+00
 -1.018185261636972427e-02 5.147891584783792496e-03 0.000000000000000000e+00
 -1.015797536820173264e-02 5.131157115101814270e-03 0.000000000000000000e+00
 -1.013415399938821793e-02 5.114460829645395279e-03 0.000000000000000000e+00
 -1.011038944125175476e-02 5.097805522382259369e-03 0.000000000000000000e+00
 -1.008668635040521622e-02 5.081192590296268463e-03 0.000000000000000000e+00
 -1.006304565817117691e-02 5.064623896032571793e-03 0.000000000000000000e+00
 -1.003947202116250992e-02 5.048101767897605896e-03 0.000000000000000000e+00
 -1.001596730202436447e-02 5.031628068536520004e-03 0.000000000000000000e+00
 -9.992534294724464417e-03 5.015204660594463348e-03 0.000000000000000000e+00
 -9.969174861907958984e-03 4.998832941055297852e-03 0.000000000000000000e+00
 -9.945892728865146637e-03 4.982515238225460052e-03 0.000000000000000000e+00
 -9.922690689563751221e-03 4.966253414750099182e-03 0.000000000000000000e+00
 -9.899569675326347351e-03 4.950049333274364471e-03 0.000000000000000000e+00
 -9.876534342765808105e-03 4.933904390782117844e-03 0.000000000000000000e+00
 -9.853585623204708099e-03 4.917820449918508530e-03 0.000000000000000000e+00
 -9.830726310610771179e-03 4.901798907667398453e-03 0.000000000000000000e+00
 -9.807959198951721191e-03 4.885842092335224152e-03 0.000000000000000000e+00
 -9.785286150872707367e-03 4.869951400905847549e-03 0.000000000000000000e+00
 -9.762709029018878937e-03 4.854128230363130569e-03 0.000000000000000000e+00
 -9.740231558680534363e-03 4.838374443352222443e-03 0.000000000000000000e+00
 -9.717854671180248260e-03 4.822691436856985092e-03 0.000000000000000000e+00
 -9.695581160485744476e-03 4.807081073522567749e-03 0.000000000000000000e+00
 -9.673412889242172241e-03 4.791543819010257721e-03 0.000000000000000000e+00
 -9.651352651417255402e-03 4.776082467287778854e-03 0.000000000000000000e+00
 -9.629401378333568573e-03 4.760697484016418457e-03 0.000000000000000000e+00
 -9.607560932636260986e-03 4.745390731841325760e-03 0.000000000000000000e+00
 -9.585834108293056488e-03 4.730163142085075378e-03 0.000000000000000000e+00
 -9.564222767949104309e-03 4.715016111731529236e-03 0.000000000000000000e+00
 -9.542727842926979065e-03 4.699951503425836563e-03 0.000000000000000000e+00
 -9.521352127194404602e-03 4.684969782829284668e-03 0.000000000000000000e+00
 -9.500097483396530151e-03 4.670072812587022781e-03 0.000000000000000000e+00
 -9.478963911533355713e-03 4.655261524021625519e-03 0.000000000000000000e+00
 -9.457954205572605133e-03 4.640536382794380188e-03 0.000000000000000000e+00
 -9.437070228159427643e-03 4.625899717211723328e-03 0.000000000000000000e+00
 -9.416313841938972473e-03 4.611351527273654938e-03 0.000000000000000000e+00
 -9.395685046911239624e-03 4.596893675625324249e-03 0.000000000000000000e+00
 -9.375185705721378326e-03 4.582526627928018570e-03 0.000000000000000000e+00
 -9.354817681014537811e-03 4.568251315504312515e-03 0.000000000000000000e+00
 -9.334581904113292694e-03 4.554068669676780701e-03 0.000000000000000000e+00
 -9.314480237662792206e-03 4.539980087429285049e-03 0.000000000000000000e+00
 -9.294512681663036346e-03 4.525986034423112869e-03 0.000000000000000000e+00
 -9.274682030081748962e-03 4.512086976319551468e-03 0.000000000000000000e+00
 -9.254988282918930054e-03 4.498284310102462769e-03 0.000000000000000000e+00
 -9.235432371497154236e-03 4.484578501433134079e-03 0.000000000000000000e+00
 -9.216016158461570740e-03 4.470970015972852707e-03 0.000000000000000000e+00
 -9.196739643812179565e-03 4.457460250705480576e-03 0.000000000000000000e+00
 -9.177604690194129944e-03 4.444048739969730377e-03 0.000000000000000000e+00
 -9.158611297607421875e-03 4.430736880749464035e-03 0.000000000000000000e+00
 -9.139760397374629974e-03 4.417525138705968857e-03 0.000000000000000000e+00
 -9.121052920818328857e-03 4.404413979500532150e-03 0.000000000000000000e+00
 -9.102490730583667755e-03 4.391403868794441223e-03 0.000000000000000000e+00
 -9.084071964025497437e-03 4.378495272248983383e-03 0.000000000000000000e+00
 -9.065799415111541748e-03 4.365688655525445938e-03 0.000000000000000000e+00
 -9.047673083841800690e-03 4.352984484285116196e-03 0.000000000000000000e+00
 -9.029692970216274261e-03 4.340382758527994156e-03 0.000000000000000000e+00
 -9.011860005557537079e-03 4.327883943915367126e-03 0.000000000000000000e+00
 -8.994174189865589142e-03 4.315488971769809723e-03 0.000000000000000000e+00
 -8.976636454463005066e-03 4.303197376430034637e-03 0.000000000000000000e+00
 -8.959246799349784851e-03 4.291009623557329178e-03 0.000000000000000000e+00
 -8.942005224525928497e-03 4.278925713151693344e-03 0.000000000000000000e+00
 -8.924912661314010620e-03 4.266946110874414444e-03 0.000000000000000000e+00
 -8.907969109714031219e-03 4.255070816725492477e-03 0.000000000000000000e+00
 -8.891174569725990295e-03 4.243300296366214752e-03 0.000000000000000000e+00
 -8.874529041349887848e-03 4.231634084135293961e-03 0.000000000000000000e+00
 -8.858033455908298492e-03 4.220072645694017410e-03 0.000000000000000000e+00
 -8.841686882078647614e-03 4.208615515381097794e-03 0.000000000000000000e+00
 -8.825489319860935211e-03 4.197263624519109726e-03 0.000000000000000000e+00
 -8.809440769255161285e-03 4.186016041785478592e-03 0.000000000000000000e+00
 -8.793542161583900452e-03 4.174873232841491699e-03 0.000000000000000000e+00
 -8.777792565524578094e-03 4.163834732025861740e-03 0.000000000000000000e+00
 -8.762191981077194214e-03 4.152901004999876022e-03 0.000000000000000000e+00
 -8.746740408241748810e-03 4.142071120440959930e-03 0.000000000000000000e+00
 -8.731436915695667267e-03 4.131345544010400772e-03 0.000000000000000000e+00
 -8.716282434761524200e-03 4.120724275708198547e-03 0.000000000000000000e+00
 -8.701276034116744995e-03 4.110206849873065948e-03 0.000000000000000000e+00
 -8.686416782438755035e-03 4.099792335182428360e-03 0.000000000000000000e+00
 -8.671705611050128937e-03 4.089481662958860397e-03 0.000000000000000000e+00
 -8.657141588628292084e-03 4.079274367541074753e-03 0.000000000000000000e+00
 -8.642723783850669861e-03 4.069169517606496811e-03 0.000000000000000000e+00
 -8.628452196717262268e-03 4.059167113155126572e-03 0.000000000000000000e+00
 -8.614326827228069305e-03 4.049267154186964035e-03 0.000000000000000000e+00
 -8.600346744060516357e-03 4.039468709379434586e-03 0.000000000000000000e+00
 -8.586511015892028809e-03 4.029771778732538223e-03 0.000000000000000000e+00
 -8.572819642722606659e-03 4.020176362246274948e-03 0.000000000000000000e+00
 -8.559272624552249908e-03 4.010681528598070145e-03 0.000000000000000000e+00
 -8.545868098735809326e-03 4.001286812126636505e-03 0.000000000000000000e+00
 -8.532606065273284912e-03 3.991992212831974030e-03 0.000000000000000000e+00
 -8.519486524164676666e-03 3.982796799391508102e-03 0.000000000000000000e+00
 -8.506507612764835358e-03 3.973700571805238724e-03 0.000000000000000000e+00
 -8.493670262396335602e-03 3.964702598750591278e-03 0.000000000000000000e+00
 -8.480971679091453552e-03 3.955802880227565765e-03 0.000000000000000000e+00
 -8.468412794172763824e-03 3.947000950574874878e-03 0.000000000000000000e+00
 -8.455991744995117188e-03 3.938295878469944000e-03 0.000000000000000000e+00
 -8.443709462881088257e-03 3.929687198251485825e-03 0.000000000000000000e+00
 -8.431563153862953186e-03 3.921174444258213043e-03 0.000000000000000000e+00
 -8.419552817940711975e-03 3.912756685167551041e-03 0.000000000000000000e+00
 -8.407678455114364624e-03 3.904434386640787125e-03 0.000000000000000000e+00
 -8.395938202738761902e-03 3.896206151694059372e-03 0.000000000000000000e+00
 -8.384332060813903809e-03 3.888071514666080475e-03 0.000000000000000000e+00
 -8.372858166694641113e-03 3.880030009895563126e-03 0.000000000000000000e+00
 -8.361516520380973816e-03 3.872080938890576363e-03 0.000000000000000000e+00
 -8.350305259227752686e-03 3.864223603159189224e-03 0.000000000000000000e+00
 -8.339224383234977722e-03 3.856457769870758057e-03 0.000000000000000000e+00
 -8.328273892402648926e-03 3.848782274872064590e-03 0.000000000000000000e+00
 -8.317450992763042450e-03 3.841196885332465172e-03 0.000000000000000000e+00
 -8.306754752993583679e-03 3.833700902760028839e-03 0.000000000000000000e+00
 -8.296186104416847229e-03 3.826293395832180977e-03 0.000000000000000000e+00
 -8.285743184387683868e-03 3.818973898887634277e-03 0.000000000000000000e+00
 -8.275424130260944366e-03 3.811741946265101433e-03 0.000000000000000000e+00
 -8.265228942036628723e-03 3.804596373811364174e-03 0.000000000000000000e+00
[...]
<CellData>
 <DataArray Name="pos.x" type="Float32" NumberOfComponents="1" format="ascii">
 -1.056261395784281742e-02
 -1.053829161595030810e-02
 -1.051397398135175791e-02
 -1.048966418983550940e-02
 -1.046536537305509801e-02
 -1.044108065686930389e-02
 -1.041681315970690615e-02
 -1.039256599092217188e-02
 -1.036834224918073942e-02
 -1.034414502084014809e-02
 -1.031997737835329415e-02
 -1.029584237868965205e-02
 -1.027174306176665240e-02
 -1.024768244890152460e-02
 -1.022366354129742964e-02
 -1.019968931853306414e-02
 -1.017576273708425440e-02
 -1.015188672887693683e-02
 -1.012806419986091340e-02
 -1.010429802861848372e-02
 -1.008059106498506233e-02
 -1.005694612873600340e-02
 -1.003336600826426617e-02
 -1.000985345933019105e-02
 -9.986411203816190213e-03
 -9.963041928539011910e-03
 -9.939748284087349117e-03
 -9.916532883702668805e-03
 -9.893398302192714724e-03
 -9.870347074898606216e-03
 -9.847381696682104904e-03
 -9.824504620978002922e-03
 -9.801718258864113367e-03
 -9.779024978194902559e-03
 -9.756427102760142217e-03
 -9.733926911504361956e-03
 -9.711526637770143827e-03
 -9.689228468607263486e-03
 -9.667034544103746130e-03
 -9.644946956775488425e-03
 -9.622967751002908798e-03
 -9.601098922488941756e-03
 -9.579342417797162557e-03
 -9.557700133893490615e-03
 -9.536173917767164568e-03
 -9.514765566072697078e-03
 -9.493476824819765264e-03
 -9.472309389113154829e-03
 -9.451264902930234940e-03
 -9.430344958933209107e-03
 -9.409551098332137944e-03
 -9.388884810786802398e-03
 -9.368347534349820427e-03
 -9.347940655436455873e-03
 -9.327665508857664947e-03
 -9.307523377862140720e-03
 -9.287515494236469119e-03
 -9.267643038438567321e-03
 -9.247907139754873995e-03
 -9.228308876503448985e-03
 -9.208849276266943204e-03
 -9.189529316158660116e-03
 -9.170349923119177835e-03
 -9.151311974242152744e-03
 -9.132416297138606226e-03
 -9.113663670316754506e-03
 -9.095054823594102625e-03
 -9.076590438547605180e-03
 -9.058271148973591827e-03
 -9.040097541373748324e-03
 -9.022070155482618189e-03
 -9.004189484787650244e-03
 -8.986455977102970546e-03
 -8.968870035133863147e-03
 -8.951432017083253700e-03
 -8.934142237262568051e-03
 -8.917000966727456346e-03
 -8.900008433922787510e-03
 -8.883164825348363255e-03
 -8.866470286239588883e-03
 -8.849924921250133802e-03
 -8.833528795164517777e-03
 -8.817281933603359281e-03
 -8.801184323755147781e-03
 -8.785235915102454496e-03
 -8.769436620169339738e-03
 -8.753786315259378878e-03
 -8.738284841227473773e-03
 -8.722932004225941727e-03
 -8.707727576474583522e-03
 -8.692671297031311778e-03
 -8.677762872565322402e-03
 -8.663001978124912697e-03
 -8.648388257921890351e-03
 -8.633921326101140145e-03
 -8.619600767523615675e-03
 -8.605426138538816924e-03
 -8.591396967758666015e-03
 -8.577512756833478511e-03
 -8.563772981222909225e-03
 -8.550177090960807413e-03
 -8.536724511415736891e-03
 -8.523414644056761039e-03
 -8.510246867208569668e-03
 -8.497220536787695663e-03
 -8.484334987062946629e-03
 -8.471589531382169025e-03
 -8.458983462903239825e-03
 -8.446516055323526409e-03
 -8.434186563584713386e-03
 -8.421994224593436218e-03
 -8.409938257911198090e-03
 -8.398017866455744634e-03
 -8.386232237166706821e-03
 -8.374580541702050795e-03
 -8.363061937081753966e-03
 -8.351675566353248398e-03
 -8.340420559234628523e-03
 -8.329296032748316134e-03
 -8.318301091837421515e-03
 -8.307434830007568577e-03
 -8.296696329885444587e-03
 -8.286084663860082342e-03
 -8.275598894629339689e-03
 -8.265238075789696839e-03
 -8.255001252387076174e-03
 -8.244887461479484189e-03
 -8.234895732653674597e-03
 -8.225025088578563279e-03
 -8.215274545494399491e-03
 -8.205643113746986100e-03
 -8.196129798251187287e-03
 -8.186733598993726005e-03
 -1.052514280840068095e-02
 -1.050087534064820388e-02
 -1.047661258110178968e-02
 -1.045235766613318920e-02
 -1.042811372796536434e-02
 -1.040388389301182513e-02
 -1.037967128023195400e-02
 -1.035547899948589465e-02
 -1.033131014991316328e-02
 -1.030716781831133612e-02
 -1.028305507753263064e-02
 -1.025897498489906565e-02
 -1.023493058063425221e-02
 -1.021092488631016905e-02
 -1.018696090332325832e-02
 -1.016304161138880009e-02
 -1.013916996704964171e-02
 -1.011534890223504159e-02
 -1.009158132282875729e-02
 -1.006787010725822967e-02
 -1.004421810514420470e-02
 -1.002062813594892937e-02
 -9.997102987679465022e-03
 -9.973645415617701446e-03
 -9.950258141080707899e-03
 -9.926943850228121119e-03
 -9.903705192893326806e-03
 -9.880544781473101293e-03
 -9.857465189830995692e-03
 -9.834468952261811794e-03
 -9.811558562488493021e-03
 -9.788736472695746399e-03
 -9.766005092619590294e-03
 -9.743366788661248987e-03
 -9.720823883061679299e-03
 -9.698378653109056974e-03
 -9.676033330386999559e-03
 -9.653790100082309394e-03
 -9.631651100320604009e-03
 -9.609618421553930978e-03
 -9.587694105984900447e-03
 -9.565880147059724337e-03
 -9.544178488966086754e-03
 -9.522591026209278192e-03
 -9.501119603212648812e-03
 -9.479766013973713393e-03
 -9.458532001755786886e-03
 -9.437419258820007803e-03
 -9.416429426213049694e-03
 -9.395564093580548171e-03
 -9.374824799033161168e-03
 -9.354213029047431238e-03
 -9.333730218414193133e-03
 -9.313377750212877351e-03
 -9.293156955841071556e-03
 -9.273069115065358387e-03
 -9.253115456129182292e-03
 -9.233297155871766568e-03
 -9.213615339910483093e-03
 -9.194071082832405706e-03
 -9.174665408434593689e-03
 -9.155399289998793905e-03
 -9.136273650580702468e-03
 -9.117289363352340179e-03
 -9.098447251956213663e-03
 -9.079748090901165400e-03
 -9.061192605974198802e-03
 -9.042781474687211149e-03
 -9.024515326751161165e-03
 -9.006394744559071547e-03
 -8.988420263717170067e-03
 -8.970592373578492248e-03
 -8.952911517800683436e-03
 -8.935378094934259136e-03
 -8.917992459022238208e-03
 -8.900754920215069380e-03
 -8.883665745414433962e-03
 -8.866725158913093402e-03
 -8.849933343076571424e-03
 -8.833290439014448645e-03
 -8.816796547277030993e-03
 -8.800451728560589396e-03
 -8.784256004425871830e-03
 -8.768209358030102860e-03
 -8.752311734847610311e-03
 -8.736563043432284820e-03
 -8.720963156158270321e-03
 -8.705511909979580382e-03
 -8.690209107195794730e-03
 -8.675054516217927530e-03
 -8.660047872340606578e-03
 -8.645188878516223141e-03
 -8.630477206134306786e-03
 -8.615912495794825210e-03
 -8.601494358093455389e-03
 -8.587222374397780397e-03
 -8.573096097616512631e-03
 -8.559115052994902689e-03
 -8.545278738878715058e-03
 -8.531586627475131607e-03
 -8.518038165648323529e-03
 -8.504632775658587523e-03
 -8.491369855940452543e-03
 -8.478248781846329726e-03
 -8.465268906408978875e-03
 -8.452429561070850389e-03
 -8.439730056437600575e-03
 -8.427169682998510158e-03
 -8.414747711859396281e-03
 -8.402463395444387945e-03
 -8.390315968225333862e-03
 -8.378304647408088557e-03
 -8.366428633622415359e-03
 -8.354687111620929044e-03
 -8.343079250930746441e-03
 -8.331604206537871274e-03
 -8.320261119530662081e-03
 -8.309049117745216997e-03
 -8.297967316406154592e-03
 -8.287014818746295253e-03
 -8.276190716621261573e-03
 -8.265494091112999056e-03
 -8.254924013126567831e-03
 -8.244479543962509455e-03
 -8.234159735902463542e-03
 -8.223963632752955000e-03
 -8.213890270405570931e-03
 -8.203938677375267885e-03
 -8.194107875313669589e-03
 -8.184396879547526857e-03
 -8.174804699552128823e-03
 -8.165330339481382399e-03
 -8.155972798612133937e-03
 -1.048665945109646634e-02
 -1.046244937655240945e-02
 -1.043824401057193152e-02
 -1.041404648974019603e-02
 -1.038985994648089495e-02
 -1.036568750739239216e-02
 -1.034153229159729542e-02
 -1.031739740909885621e-02
 -1.029328595914347916e-02
 -1.026920102860531640e-02
 -1.024514569037245602e-02
 -1.022112300176431995e-02
 -1.019713600295363981e-02
 -1.017318771541040646e-02
 -1.014928114037520930e-02
 -1.012541925734548529e-02
 -1.010160502259325153e-02
 -1.007784136770733391e-02
 -1.005413119815659270e-02
 -1.003047739189217614e-02
 -1.000688279797652853e-02
 -9.983350235240023851e-03
 -9.959882490976817992e-03
 -9.936482319671893076e-03
 -9.913152441761989564e-03
 -9.889895542436849887e-03
 -9.866714270476412488e-03
 -9.843611237125944255e-03
 -9.820589015012183565e-03
 -9.797650137094576772e-03
 -9.774797095667597108e-03
 -9.752032341394802073e-03
 -9.729358282387565171e-03
 -9.706777283336064446e-03
 -9.684291664661439855e-03
 -9.661903701739480224e-03
 -9.639615624150853213e-03
 -9.617429614971148913e-03
 -9.595347810123703094e-03
 -9.573372297759501215e-03
 -9.551505117694767191e-03
 -9.529748260879917707e-03
 -9.508103668924539412e-03
 -9.486573233658972260e-03
 -9.465158796746815650e-03
 -9.443862149332479458e-03
 -9.422685031740334408e-03
 -9.401629133212298720e-03
 -9.380696091686320862e-03
 -9.359887493625672350e-03
 -9.339204873876471441e-03
 -9.318649715580070922e-03
 -9.298223450114084451e-03
 -9.277927457080387477e-03
 -9.257763064325507177e-03
 -9.237731548012143371e-03
 -9.217834132704907230e-03
 -9.198071991521295995e-03
 -9.178446246289153829e-03
 -9.158957967764214808e-03
 -9.139608175864046002e-03
 -9.120397839935368359e-03
 -9.101327879076717003e-03
 -9.082399162449390426e-03
 -9.063612509662338779e-03
 -9.044968691151841073e-03
 -9.026468428614134801e-03
 -9.008112395438930275e-03
 -8.989901217202897823e-03
 -8.971835472148614529e-03
 -8.953915691714706138e-03
 -8.936142361079696741e-03
 -8.918515919723552648e-03
 -8.901036762018432053e-03
 -8.883705237828712006e-03
 -8.866521653132623110e-03
 -8.849486270667191942e-03
 -8.832599310575967727e-03
 -8.815860951089226488e-03
 -8.799271329199056038e-03
 -8.782830541361101931e-03
 -8.766538644205880415e-03
 -8.750395655255026675e-03
 -8.734401553649358274e-03
 -8.718556280895670141e-03
 -8.702859741609338465e-03
 -8.687311804266201892e-03
 -8.671912301965453013e-03
 -8.656661033201141012e-03
 -8.641557762618840705e-03
 -8.626602221805024576e-03
 -8.611794110056079574e-03
 -8.597133095154970567e-03
 -8.582618814159555937e-03
 -8.568250874174667894e-03
 -8.554028853144098749e-03
 -8.539952300616333869e-03
 -8.526020738541407323e-03
 -8.512233662025664449e-03
 -8.498590540121064504e-03
 -8.485090816597949670e-03
 -8.471733910694912231e-03
 -8.458519217894658326e-03
 -8.445446110679537266e-03
 -8.432513939272620607e-03
 -8.419722032399488618e-03
 -8.407069698015367382e-03
 -8.394556224038229875e-03
 -8.382180879077962693e-03
 -8.369942913154447897e-03
 -8.357841558399281209e-03
 -8.345876029764647680e-03
 -8.334045525713457137e-03
 -8.322349228897792800e-03
 -8.310786306843910218e-03
 -8.299355912602007432e-03
 -8.288057185415241904e-03
 -8.276889251352483046e-03
 -8.265851223956887164e-03
 -8.254942204854561622e-03
 -8.244161284380503371e-03
 -8.233507542177423769e-03
 -8.222980047787355196e-03
 -8.212577861235768883e-03
 -8.202300033598730611e-03
 -8.192145607564082013e-03
 -8.182113617990222770e-03
 -8.172203092417016160e-03
 -8.162413051620109536e-03
 -8.152742510112685748e-03
 -8.143190476644216955e-03
 -8.133755954702346150e-03
 -8.124437942998153500e-03
 -1.044716389937145641e-02
 -1.042301376389048045e-02
 -1.039886833676907131e-02
 -1.037473075442567338e-02
 -1.035060414911286551e-02
 -1.032649164723993540e-02
 -1.030239636771974020e-02
 -1.027832142032313566e-02
 -1.025426990403702394e-02
 -1.023024490544096818e-02
 -1.020624949709740548e-02
 -1.018228673595257885e-02
 -1.015835966176580410e-02
 -1.013447129554822385e-02
 -1.011062463802466123e-02
 -1.008682266812552068e-02
 -1.006306834149729539e-02
 -1.003936458903656979e-02
 -1.001571431546123894e-02
 -9.992120397902455944e-03
 -9.968585684525532037e-03
 -9.945112993200182563e-03
 -9.921705110177134190e-03
 -9.898364788817266488e-03
 -9.875094748364012312e-03
 -9.851897672720620613e-03
 -9.828776209301394798e-03
 -9.805732967900023314e-03
 -9.782770519600671177e-03
 -9.759891395738538866e-03
 -9.737098086890574183e-03
 -9.714393041911136006e-03
 -9.691778667015553753e-03
 -9.669257324903247214e-03
 -9.646831333916998028e-03
 -9.624502967260932865e-03
 -9.602274452249516534e-03
 -9.580147969604933464e-03
 -9.558125652810301257e-03
 -9.536209587478377062e-03
 -9.514401810802597392e-03
 -9.492704311020267946e-03
 -9.471119026949571112e-03
 -9.449647847533876668e-03
 -9.428292611470516157e-03
 -9.407055106857627885e-03
 -9.385937070891522266e-03
 -9.364940189605959822e-03
 -9.344066097658882547e-03
 -9.323316378158395118e-03
 -9.302692562524757236e-03
 -9.282196130403151321e-03
 -9.261828509610296398e-03
 -9.241591076124813439e-03
 -9.221485154110840160e-03
 -9.201512015985914214e-03
 -9.181672882524234344e-03
 -9.161968922990575831e-03
 -9.142401255322800749e-03
 -9.122970946336154616e-03
 -9.103679011963574166e-03
 -9.084526417543741655e-03
 -9.065514078108171184e-03
 -9.046642858746617791e-03
 -9.027913574946849068e-03
 -9.009326993015542850e-03
 -8.990883830487865838e-03
 -8.972584756587013988e-03
 -8.954430392696445876e-03
 -8.936421312861981062e-03
 -8.918558044320607989e-03
 -8.900841068044954701e-03
 -8.883270819307917052e-03
 -8.865847688279785213e-03
 -8.848572020632033269e-03
 -8.831444118155026488e-03
 -8.814464239420227720e-03
 -8.797632600417085516e-03
 -8.780949375244501837e-03
 -8.764414696784310690e-03
 -8.748028657414044784e-03
 -8.731791309711923674e-03
 -8.715702667178333932e-03
 -8.699762704978559677e-03
 -8.683971360669172010e-03
 -8.668328534965380472e-03
 -8.652834092486877404e-03
 -8.637487862520129220e-03
 -8.622289639794967001e-03
 -8.607239185250852020e-03
 -8.592336226814259112e-03
 -8.577580460181526145e-03
 -8.562971549596218312e-03
 -8.548509128631281984e-03
 -8.534192800977837348e-03
 -8.520022141220429807e-03
 -8.505996695622278572e-03
 -8.492115982909911182e-03
 -8.478379495039711777e-03
 -8.464786697987914180e-03
 -8.451337032508521654e-03
 -8.438029914911429272e-03
 -8.424864737818367824e-03
 -8.411840870927639324e-03
 -8.398957661757617751e-03
 -8.386214436404504022e-03
 -8.373610500271090260e-03
 -8.361145138806001798e-03
 -8.348817618234151069e-03
 -8.336627186257411504e-03
 -8.324573072786599706e-03
 -8.312654490626963585e-03
 -8.300870636172210520e-03
 -8.289220690098682981e-03
 -8.277703818029648331e-03
 -8.266319171200501095e-03
 -8.255065887118127888e-03
 -8.243943090204885332e-03
 -8.232949892429253583e-03
 -8.222085393935525330e-03
 -8.211348683654725103e-03
 -8.200738839903406324e-03
 -8.190254930985929951e-03
 -8.179896015764171954e-03
 -8.169661144240076417e-03
 -8.159549358100735145e-03
 -8.149559691279374685e-03
 -8.139691170481648877e-03
 -8.129942815718443558e-03
 -8.120313640813088887e-03
 -8.110802653911635199e-03
 -8.101408857969144561e-03
 -8.092131251231751352e-03
 -1.040665616634382437e-02
 -1.038256854200032830e-02
 -1.035848562523513337e-02
 -1.033441055192864735e-02
 -1.031034645377460791e-02
 -1.028629645661517308e-02
 -1.026226367877642633e-02
 -1.023825122941887655e-02
 -1.021426220689083952e-02
 -1.019029969710623373e-02
 -1.016636677192542595e-02
 -1.014246648755770183e-02
 -1.011860188297621088e-02
 -1.009477597836777943e-02
 -1.007099177358193945e-02
 -1.004725224662122822e-02
 -1.002356035214697384e-02
 -9.999919020018465526e-03
 -9.976331153846405841e-03
 -9.952799629594831152e-03
 -9.929327294200351525e-03
 -9.905916964223462212e-03
 -9.882571424542822489e-03
 -9.859293427072875204e-03
 -9.836085689529209392e-03
 -9.812950894215157621e-03
 -9.789891686863354606e-03
 -9.766910675507639583e-03
 -9.744010429387982633e-03
 -9.721193477914271894e-03
 -9.698462309650032753e-03
 -9.675819371361103760e-03
 -9.653267067078419306e-03
 -9.630807757238808026e-03
 -9.608443757836489241e-03
 -9.586177339635610847e-03
 -9.564010727434162779e-03
 -9.541946099349669919e-03
 -9.519985586170407257e-03
 -9.498131270741451762e-03
 -9.476385187398546697e-03
 -9.454749321446909160e-03
 -9.433225608681617205e-03
 -9.411815934953049467e-03
 -9.390522135791525699e-03
 -9.369345996043687910e-03
 -9.348289249582725224e-03
 -9.327353579058839106e-03
 -9.306540615663532606e-03
 -9.285851938980764150e-03
 -9.265289076832241427e-03
 -9.244853505217798945e-03
 -9.224546648237991198e-03
 -9.204369878102755878e-03
 -9.184324515153137816e-03
 -9.164411827931859267e-03
 -9.144633033295317126e-03
 -9.124989296542819830e-03
 -9.105481731602173279e-03
 -9.086111401246153504e-03
 -9.066879317329110816e-03
 -9.047786441073426417e-03
 -9.028833683379311470e-03
 -9.010021905163515324e-03
 -8.991351917736931446e-03
 -8.972824483193087008e-03
 -8.954440314858121489e-03
 -8.936200077718076812e-03
 -8.918104388923986381e-03
 -8.900153818281060156e-03
 -8.882348888781817220e-03
 -8.864690077165405732e-03
 -8.847177814464399909e-03
 -8.829812486631494900e-03
 -8.812594435122582046e-03
 -8.795523957538546253e-03
 -8.778601308270067918e-03
 -8.761826699157515205e-03
 -8.745200300169430827e-03
 -8.728722240092568613e-03
 -8.712392607232281178e-03
 -8.696211450139389870e-03
 -8.680178778315943144e-03
 -8.664294562973183164e-03
 -8.648558737757097367e-03
 -8.632971199515686658e-03
 -8.617531809049715566e-03
 -8.602240391882240780e-03
 -8.587096739025979961e-03
 -8.572100607763833216e-03
 -8.557251722420954748e-03
 -8.542549775153970501e-03
 -8.527994426724748098e-03
 -8.513585307294412735e-03
 -8.499322017202050675e-03
 -8.485204127753104633e-03
 -8.471231181995192427e-03
 -8.457402695513574833e-03
 -8.443718157197877341e-03
 -8.430177030024046253e-03
 -8.416778751826592062e-03
 -8.403522736068504834e-03
 -8.390408372608265664e-03
 -8.377435028450211721e-03
 -8.364602048505269741e-03
 -8.351908756337490802e-03
 -8.339354454900423097e-03
 -8.326938427278364474e-03
 -8.314659937403306306e-03
 -8.302518230781619560e-03
 -8.290512535198319571e-03
 -8.278642061420708048e-03
 -8.266906003896000790e-03
 -8.255303541424563463e-03
 -8.243833837845861157e-03
 -8.232496042693186397e-03
 -8.221289291858141501e-03
 -8.210212708225167466e-03
 -8.199265402313485329e-03
 -8.188446472898364831e-03
 -8.177755007627594830e-03
 -8.167190083618323590e-03
 -8.156750768050691561e-03
 -8.146436118751496439e-03
 -8.136245184764237179e-03
 -8.126177006901474237e-03
 -8.116230618297089194e-03
 -8.106405044942727178e-03
 -8.096699306208437683e-03
 -8.087112415358432144e-03
 -8.077643380052826685e-03
 -8.068291202837566192e-03
 -8.059054881625704256e-03
 -1.036513626480380611e-02
 -1.034111374931678297e-02
 -1.031709594004847665e-02
 -1.029308597194957854e-02
 -1.026908697577220281e-02
 -1.024510207640469406e-02
 -1.022113439120039477e-02
 -1.019718702832617119e-02
 -1.017326308511517716e-02
 -1.014936564643162571e-02
 -1.012549778305628020e-02
 -1.010166255008324021e-02
 -1.007786298533199995e-02
 -1.005410210779033968e-02
 -1.003038291606724551e-02
 -1.000670838686868944e-02
 -9.983081473514069520e-03
 -9.959505104460076447e-03
 -9.935982181865506482e-03
 -9.912515580172386043e-03
 -9.889108144737238440e-03
 -9.865762690475848515e-03
 -9.842482000555454608e-03
 -9.819268825107996604e-03
 -9.796125879994375257e-03
 -9.773055845595580646e-03
 -9.750061365641682701e-03
 -9.727145046095260830e-03
 -9.704309454042533978e-03
 -9.681557116665047771e-03
 -9.658890520221057041e-03
 -9.636312109088938579e-03
 -9.613824284836673326e-03
 -9.591429405355131679e-03
 -9.569129784014061141e-03
 -9.546927688882286475e-03
 -9.524825341967611131e-03
 -9.502824918532985776e-03
 -9.480928546427338718e-03
 -9.459138305482136730e-03
 -9.437456226942739224e-03
 -9.415884292949204190e-03
 -9.394424436058273001e-03
 -9.373078538813498992e-03
 -9.351848433360988866e-03
 -9.330735901100587967e-03
 -9.309742672393194265e-03
 -9.288870426305327263e-03
 -9.268120790389647312e-03
 -9.247495340525584834e-03
 -9.226995600783669330e-03
 -9.206623043338954537e-03
 -9.186379088435909362e-03
 -9.166265104359940658e-03
 -9.146282407497641903e-03
 -9.126432262380504770e-03
 -9.106715881818022718e-03
 -9.087134427024861835e-03
 -9.067689007810731533e-03
 -9.048380682795157184e-03
 -9.029210459654423218e-03
 -9.010179295405231631e-03
 -8.991288096722288223e-03
 -8.972537720277614509e-03
 -8.953928973118684478e-03
 -8.935462613075694296e-03
 -8.917139349185629338e-03
 -8.898959842156850888e-03
 -8.880924704850030882e-03
 -8.863034502786051178e-03
 -8.845289754681554331e-03
 -8.827690932995412715e-03