<VTKFile type="UnstructuredGrid" byte_order="BigEndian">
<UnstructuredGrid><Piece NumberOfPoints="627" NumberOfCells="576">
<Points>
 <DataArray type="Float32" NumberOfComponents="3" format="ascii">
 -7.995982654392719269e-03 1.662842114455997944e-03 0.000000000000000000e+00
 -7.986795157194137573e-03 1.659226487390697002e-03 0.000000000000000000e+00
 -7.976494729518890381e-03 1.655172905884683132e-03 0.000000000000000000e+00
 -7.964986376464366913e-03 1.650644000619649887e-03 0.000000000000000000e+00
 -7.952178828418254852e-03 1.645604032091796398e-03 0.000000000000000000e+00
 -7.937991060316562653e-03 1.640020636841654778e-03 0.000000000000000000e+00
 -7.922354154288768768e-03 1.633867039345204830e-03 0.000000000000000000e+00
 -7.905218750238418579e-03 1.627124031074345112e-03 0.000000000000000000e+00
 -7.886562496423721313e-03 1.619782182388007641e-03 0.000000000000000000e+00
 -7.866392843425273895e-03 1.611844636499881744e-03 0.000000000000000000e+00
 -7.844751700758934021e-03 1.603328506462275982e-03 0.000000000000000000e+00
 -7.821725681424140930e-03 1.594267203472554684e-03 0.000000000000000000e+00
 -7.797441445291042328e-03 1.584710553288459778e-03 0.000000000000000000e+00
 -7.772068027406930923e-03 1.574725261889398098e-03 0.000000000000000000e+00
 -7.745813112705945969e-03 1.564393285661935806e-03 0.000000000000000000e+00
 -7.718917913734912872e-03 1.553809386678040028e-03 0.000000000000000000e+00
 -7.691647857427597046e-03 1.543077756650745869e-03 0.000000000000000000e+00
 -7.664279080927371979e-03 1.532307476736605167e-03 0.000000000000000000e+00
 -7.637090981006622314e-03 1.521608093753457069e-03 0.000000000000000000e+00
 -7.610348984599113464e-03 1.511084497906267643e-03 0.000000000000000000e+00
 -7.584298029541969299e-03 1.500832615420222282e-03 0.000000000000000000e+00
 -7.559149991720914841e-03 1.490936265327036381e-03 0.000000000000000000e+00
 -7.535079494118690491e-03 1.481463899835944176e-03 0.000000000000000000e+00
 -7.512221112847328186e-03 1.472468371503055096e-03 0.000000000000000000e+00
 -7.490665651857852936e-03 1.463985769078135490e-03 0.000000000000000000e+00
 -7.470466662198305130e-03 1.456036814488470554e-03 0.000000000000000000e+00
 -7.451640442013740540e-03 1.448628259822726250e-03 0.000000000000000000e+00
 -7.434174418449401855e-03 1.441754866391420364e-03 0.000000000000000000e+00
 -7.418030407279729843e-03 1.435401733033359051e-03 0.000000000000000000e+00
 -7.403151597827672958e-03 1.429546508006751537e-03 0.000000000000000000e+00
 -7.389468140900135040e-03 1.424161717295646667e-03 0.000000000000000000e+00
 -7.376901805400848389e-03 1.419216627255082130e-03 0.000000000000000000e+00
 -7.365370634943246841e-03 1.414678758010268211e-03 0.000000000000000000e+00
 -7.981189526617527008e-03 1.753360149450600147e-03 0.000000000000000000e+00
 -7.971996441483497620e-03 1.749556744471192360e-03 0.000000000000000000e+00
 -7.961693219840526581e-03 1.745294081047177315e-03 0.000000000000000000e+00
 -7.950185798108577728e-03 1.740533276461064816e-03 0.000000000000000000e+00
 -7.937383837997913361e-03 1.735236844979226589e-03 0.000000000000000000e+00
 -7.923205383121967316e-03 1.729371026158332825e-03 0.000000000000000000e+00
 -7.907582446932792664e-03 1.722907763905823231e-03 0.000000000000000000e+00
 -7.890466600656509399e-03 1.715826685540378094e-03 0.000000000000000000e+00
 -7.871834561228752136e-03 1.708118245005607605e-03 0.000000000000000000e+00
 -7.851692847907543182e-03 1.699785236269235611e-03 0.000000000000000000e+00
 -7.830085232853889465e-03 1.690845936536788940e-03 0.000000000000000000e+00
 -7.807096000760793686e-03 1.681334688328206539e-03 0.000000000000000000e+00
 -7.782850414514541626e-03 1.671303878538310528e-03 0.000000000000000000e+00
 -7.757516577839851379e-03 1.660823007114231586e-03 0.000000000000000000e+00
 -7.731301710009574890e-03 1.649977406486868858e-03 0.000000000000000000e+00
 -7.704444695264101028e-03 1.638866262510418892e-03 0.000000000000000000e+00
 -7.677208632230758667e-03 1.627598307095468044e-03 0.000000000000000000e+00
 -7.649869192391633987e-03 1.616287394426763058e-03 0.000000000000000000e+00
 -7.622702047228813171e-03 1.605047960765659809e-03 0.000000000000000000e+00
 -7.595972623676061630e-03 1.593989552929997444e-03 0.000000000000000000e+00
 -7.569923531264066696e-03 1.583212637342512608e-03 0.000000000000000000e+00
 -7.544765714555978775e-03 1.572804292663931847e-03 0.000000000000000000e+00
 -7.520672865211963654e-03 1.562836812809109688e-03 0.000000000000000000e+00
 -7.497778162360191345e-03 1.553364912979304790e-03 0.000000000000000000e+00
 -7.476173341274261475e-03 1.544426660984754562e-03 0.000000000000000000e+00
 -7.455911487340927124e-03 1.536043826490640640e-03 0.000000000000000000e+00
 -7.437009364366531372e-03 1.528223743662238121e-03 0.000000000000000000e+00
 -7.419454399496316910e-03 1.520960940979421139e-03 0.000000000000000000e+00
 -7.403209339827299118e-03 1.514240168035030365e-03 0.000000000000000000e+00
 -7.388218771666288376e-03 1.508038374595344067e-03 0.000000000000000000e+00
 -7.374413777142763138e-03 1.502326922491192818e-03 0.000000000000000000e+00
 -7.361717056483030319e-03 1.497074146755039692e-03 0.000000000000000000e+00
 -7.350047584623098373e-03 1.492246286943554878e-03 0.000000000000000000e+00
 -7.965588942170143127e-03 1.843702164478600025e-03 0.000000000000000000e+00
 -7.956390269100666046e-03 1.839710981585085392e-03 0.000000000000000000e+00
 -7.946084253489971161e-03 1.835239818319678307e-03 0.000000000000000000e+00
 -7.934577763080596924e-03 1.830247696489095688e-03 0.000000000000000000e+00
 -7.921780459582805634e-03 1.824695733375847340e-03 0.000000000000000000e+00
 -7.907611317932605743e-03 1.818548655137419701e-03 0.000000000000000000e+00
 -7.892003282904624939e-03 1.811776892282068729e-03 0.000000000000000000e+00
 -7.874906994402408600e-03 1.804359606467187405e-03 0.000000000000000000e+00
 -7.856298238039016724e-03 1.796286320313811302e-03 0.000000000000000000e+00
 -7.836185395717620850e-03 1.787560177035629749e-03 0.000000000000000000e+00
 -7.814610376954078674e-03 1.778200035914778709e-03 0.000000000000000000e+00
 -7.791656535118818283e-03 1.768241636455059052e-03 0.000000000000000000e+00
 -7.767449598759412766e-03 1.757739461027085781e-03 0.000000000000000000e+00
 -7.742155808955430984e-03 1.746765803545713425e-03 0.000000000000000000e+00
 -7.715980522334575653e-03 1.735409721732139587e-03 0.000000000000000000e+00
 -7.689161226153373718e-03 1.723774243146181107e-03 0.000000000000000000e+00
 -7.661959156394004822e-03 1.711972639895975590e-03 0.000000000000000000e+00
 -7.634648121893405914e-03 1.700123655609786510e-03 0.000000000000000000e+00
 -7.607501931488513947e-03 1.688346499577164650e-03 0.000000000000000000e+00
 -7.580784615129232407e-03 1.676755258813500404e-03 0.000000000000000000e+00
 -7.554736919701099396e-03 1.665454474277794361e-03 0.000000000000000000e+00
 -7.529568858444690704e-03 1.654535299167037010e-03 0.000000000000000000e+00
 -7.505453191697597504e-03 1.644072704948484898e-03 0.000000000000000000e+00
 -7.482522167265415192e-03 1.634124200791120529e-03 0.000000000000000000e+00
 -7.460867520421743393e-03 1.624729367904365063e-03 0.000000000000000000e+00
 -7.440542336553335190e-03 1.615911140106618404e-03 0.000000000000000000e+00
 -7.421563379466533661e-03 1.607677200809121132e-03 0.000000000000000000e+00
 -7.403919007629156113e-03 1.600022311322391033e-03 0.000000000000000000e+00
 -7.387572899460792542e-03 1.592930639162659645e-03 0.000000000000000000e+00
 -7.372470572590827942e-03 1.586378319188952446e-03 0.000000000000000000e+00
 -7.358543574810028076e-03 1.580336131155490875e-03 0.000000000000000000e+00
 -7.345716003328561783e-03 1.574770896695554256e-03 0.000000000000000000e+00
 -7.333907764405012131e-03 1.569648040458559990e-03 0.000000000000000000e+00
 -7.949181832373142242e-03 1.933869789354503155e-03 0.000000000000000000e+00
 -7.939976640045642853e-03 1.929691061377525330e-03 0.000000000000000000e+00
 -7.929667830467224121e-03 1.925011514686048031e-03 0.000000000000000000e+00
 -7.918162271380424500e-03 1.919788657687604427e-03 0.000000000000000000e+00
 -7.905370555818080902e-03 1.913981745019555092e-03 0.000000000000000000e+00
 -7.891210727393627167e-03 1.907554105855524540e-03 0.000000000000000000e+00
 -7.875615730881690979e-03 1.900475122965872288e-03 0.000000000000000000e+00
 -7.858538068830966949e-03 1.892722910270094872e-03 0.000000000000000000e+00
 -7.839953526854515076e-03 1.884286524727940559e-03 0.000000000000000000e+00
 -7.819868624210357666e-03 1.875169109553098679e-03 0.000000000000000000e+00
 -7.798326201736927032e-03 1.865390106104314327e-03 0.000000000000000000e+00
 -7.775408681482076645e-03 1.854986883699893951e-03 0.000000000000000000e+00
 -7.751239929348230362e-03 1.844015787355601788e-03 0.000000000000000000e+00
 -7.725985720753669739e-03 1.832551904954016209e-03 0.000000000000000000e+00
 -7.699850015342235565e-03 1.820687786675989628e-03 0.000000000000000000e+00
 -7.673067972064018250e-03 1.808530418202280998e-03 0.000000000000000000e+00
 -7.645899895578622818e-03 1.796197611838579178e-03 0.000000000000000000e+00
 -7.618616800755262375e-03 1.783812767826020718e-03 0.000000000000000000e+00
 -7.591491565108299255e-03 1.771499519236385822e-03 0.000000000000000000e+00
 -7.564786355942487717e-03 1.759376842528581619e-03 0.000000000000000000e+00
 -7.538739591836929321e-03 1.747553236782550812e-03 0.000000000000000000e+00
 -7.513560820370912552e-03 1.736123696900904179e-03 0.000000000000000000e+00
 -7.489421870559453964e-03 1.725165988318622112e-03 0.000000000000000000e+00
 -7.466454524546861649e-03 1.714740064926445484e-03 0.000000000000000000e+00
 -7.444749586284160614e-03 1.704887370578944683e-03 0.000000000000000000e+00
 -7.424360606819391251e-03 1.695631886832416058e-03 0.000000000000000000e+00
 -7.405304815620183945e-03 1.686981762759387493e-03 0.000000000000000000e+00
 -7.387571036815643311e-03 1.678931643255054951e-03 0.000000000000000000e+00
[...]
<CellData>
 <DataArray Name="pos.x" type="Float32" NumberOfComponents="1" format="ascii">
 -7.983987898871438768e-03
 -7.974242552813655405e-03
 -7.963338525398804685e-03
 -7.951183126762972203e-03
 -7.937690214823987442e-03
 -7.922784818123139103e-03
 -7.906408437626414459e-03
 -7.888524816903894413e-03
 -7.869125840215237047e-03
 -7.848237085871982363e-03
 -7.825922451937777913e-03
 -7.802287213182914662e-03
 -7.777478892937034205e-03
 -7.751685463770612537e-03
 -7.725130630874407593e-03
 -7.698066280225538890e-03
 -7.670762541349808970e-03
 -7.643496253931143097e-03
 -7.616538867772551687e-03
 -7.590144892788542805e-03
 -7.564541929727473975e-03
 -7.539923072854649855e-03
 -7.516442136645120481e-03
 -7.494211790457467465e-03
 -7.473304356289032190e-03
 -7.453754784018485485e-03
 -7.435565187743757055e-03
 -7.418710301908435986e-03
 -7.403143274167908044e-03
 -7.388801322691500653e-03
 -7.375610918236736972e-03
 -7.363492281800853613e-03
 -7.968787689970658478e-03
 -7.959038098172757994e-03
 -7.948133271241115960e-03
 -7.935980948582388450e-03
 -7.922495374592079462e-03
 -7.907601891832908084e-03
 -7.891242208778848077e-03
 -7.873380132964694078e-03
 -7.854007431372116502e-03
 -7.833149348651157612e-03
 -7.810869204181418099e-03
 -7.787271431213121757e-03
 -7.762502445930943330e-03
 -7.736748863598479076e-03
 -7.710232817327410636e-03
 -7.683204460900002961e-03
 -7.655932102361394376e-03
 -7.628690752173985026e-03
 -7.601750108315708833e-03
 -7.575363087338811419e-03
 -7.549755924905680697e-03
 -7.525120631583995766e-03
 -7.501610252726257158e-03
 -7.479337015780167935e-03
 -7.458373121698396065e-03
 -7.438753698158092308e-03
 -7.420481302358112978e-03
 -7.403531336492998917e-03
 -7.387857796858065922e-03
 -7.373398887573734753e-03
 -7.360082161677808724e-03
 -7.347828981911603066e-03
 -7.952780470921077746e-03
 -7.943026500815986504e-03
 -7.932120732895488191e-03
 -7.919971335389403358e-03
 -7.906492938718593516e-03
 -7.891611199044031022e-03
 -7.875268031950193731e-03
 -7.857427308564158761e-03
 -7.838080678267932144e-03
 -7.817253051785030826e-03
 -7.795007169601271026e-03
 -7.771446623320292513e-03
 -7.746716721927150717e-03
 -7.721002723423851452e-03
 -7.694525188971927318e-03
 -7.667532540389257120e-03
 -7.640291264571615927e-03
 -7.613074543175681573e-03
 -7.586150322864171867e-03
 -7.559769927400643297e-03
 -7.534158228010606057e-03
 -7.509506152259876575e-03
 -7.485965977121280396e-03
 -7.463649488905816157e-03
 -7.442628768335613626e-03
 -7.422939121720285686e-03
 -7.404583550225162479e-03
 -7.387538124682468260e-03
 -7.371757690927744321e-03
 -7.357181439953209244e-03
 -7.343738007988895831e-03
 -7.331349900430162748e-03
 -7.935966078094987969e-03
 -7.926207628408470443e-03
 -7.915300813182335818e-03
 -7.903154229313834322e-03
 -7.889682893110535472e-03
 -7.874812774145952335e-03
 -7.858485994910676536e-03
 -7.840666489877799392e-03
 -7.821345790533470663e-03
 -7.800548473306489518e-03
 -7.778336699365946509e-03
 -7.754813218166517995e-03
 -7.730122230935464189e-03
 -7.704447637800015611e-03
 -7.678008427332690122e-03
 -7.651051288751577195e-03
 -7.623840887195789708e-03
 -7.596648574983228680e-03
 -7.569740547031129745e-03
 -7.543366534020099108e-03
 -7.517750042600796281e-03
 -7.493080917370048034e-03
 -7.469510667142297521e-03
 -7.447150637486860646e-03
 -7.426072789463292190e-03
 -7.406312608741233601e-03
 -7.387873541322510784e-03
 -7.370732327654926259e-03
 -7.354844664201291328e-03
 -7.340150729962821238e-03
 -7.326580245547486062e-03
 -7.314056860200968818e-03
 -7.918344424003525769e-03
 -7.908581424929724685e-03
 -7.897673491359355133e-03
 -7.885529649044003067e-03
 -7.872065300285984585e-03
 -7.857206728161439391e-03
 -7.840896262045430470e-03
 -7.823097899634093993e-03
 -7.803803054237551731e-03
 -7.783035967545141008e-03
 -7.760858220756397356e-03
 -7.737371720325862158e-03
 -7.712719558661960267e-03
 -7.687084276769812208e-03
 -7.660683289242624372e-03
 -7.633761551207709009e-03
 -7.606581904533086733e-03
 -7.579413870729524196e-03
 -7.552521891623202761e-03
 -7.526154103659359051e-03
 -7.500532648006284775e-03
 -7.475846285682205723e-03
 -7.452245757039240026e-03
 -7.429841966929032031e-03
 -7.408706757073879427e-03
 -7.388875793120570565e-03
 -7.370352966767279232e-03
 -7.353115689162296152e-03
 -7.337120508630628861e-03
 -7.322308593542709368e-03
 -7.308610750324545657e-03
 -7.295951773547059045e-03
 -7.899915497286974161e-03
 -7.890147910652402577e-03
 -7.879238823135847891e-03
 -7.867097689796990340e-03
 -7.853640299364344352e-03
 -7.838793248723557525e-03
 -7.822499074322815382e-03
 -7.804721837067284985e-03
 -7.785452831839321380e-03
 -7.764715965055388192e-03
 -7.742572237088814376e-03
 -7.719122710189944316e-03
 -7.694509366401754841e-03
 -7.668913385745082870e-03
 -7.642550606701038925e-03
 -7.615664247986787642e-03
 -7.588515325795025177e-03
 -7.561371528448465433e-03
 -7.534495542438385436e-03
 -7.508133907982187868e-03
 -7.482507399109405467e-03
 -7.457803692008623843e-03
 -7.434172757761562007e-03
 -7.411725060147205009e-03
 -7.390532321641178105e-03
 -7.370630388367901617e-03
 -7.352023598579505471e-03
 -7.334690035281003426e-03
 -7.318587100053154659e-03
 -7.303656952206844140e-03
 -7.289831485664439309e-03
 -7.277036642056056506e-03
 -7.880679362726940307e-03
 -7.870907182159639706e-03
 -7.859996940642910088e-03
 -7.847858523319853688e-03
 -7.834408106037015276e-03
 -7.819572600054327735e-03
 -7.803294749258053720e-03
 -7.785538677869309129e-03
 -7.766295562126345788e-03
 -7.745588972549807480e-03
 -7.723479327628284853e-03
 -7.700066843867767533e-03
 -7.675492390927607898e-03
 -7.649935785374772229e-03
 -7.623611286727259746e-03
 -7.596760374165681222e-03
 -7.569642234929946714e-03
 -7.542522720881863173e-03
 -7.515662760060236314e-03
 -7.489307293638136978e-03
 -7.463675726115759877e-03
 -7.438954646970979620e-03
 -7.415293256707963798e-03
 -7.392801577312747147e-03
 -7.371551211868573525e-03
 -7.351578187352872905e-03
 -7.332887289419957356e-03
 -7.315457274159057471e-03
 -7.299246397950842971e-03
 -7.284197812806965031e-03
 -7.270244502050205587e-03
 -7.257313556357163943e-03
 -7.860636161249089440e-03
 -7.850859412325064679e-03
 -7.839948052440915555e-03
 -7.827812397875940492e-03
 -7.814369012559971989e-03
 -7.799545122934874695e-03
 -7.783283680877052003e-03
 -7.765548874152460208e-03
 -7.746331760157070499e-03
 -7.725655572829679199e-03
 -7.703580147507590146e-03
 -7.680204853091022674e-03
 -7.655669444374430845e-03
 -7.630152371414148857e-03
 -7.603866311216385052e-03
 -7.577050999505807218e-03
 -7.549963790444621028e-03
 -7.522868695287664512e-03
 -7.496024879651601996e-03
 -7.469675682043111498e-03
 -7.444039134318755288e-03
 -7.419300736755859646e-03
 -7.395608917480430734e-03
 -7.373073255602849603e-03
 -7.351765234425730253e-03
 -7.331721062041810302e-03
 -7.312945972329229667e-03
 -7.295419395766509878e-03
 -7.279100445196780636e-03
 -7.263933267278626510e-03
 -7.249851936859221142e-03
 -7.236784695888500048e-03
 -7.839786109922457918e-03
 -7.830004850339843461e-03
 -7.819092443512750540e-03
 -7.806959638225317681e-03
 -7.793523387728270614e-03
 -7.778711234675998037e-03
 -7.762466339680806036e-03
 -7.744752954392387749e-03
 -7.725562017205172237e-03
 -7.704916424707788924e-03
 -7.682875427640008942e-03
 -7.659537545109115081e-03
 -7.635041414120893356e-03
 -7.609564114594698399e-03
 -7.583316736788590744e-03
 -7.556537268285264120e-03
 -7.529481225218454324e-03
 -7.502410773241219473e-03
 -7.475583310739561740e-03
 -7.449240569149194122e-03
 -7.423599203863139387e-03
 -7.398843622866373496e-03
 -7.375121479625178222e-03
 -7.352541908931945966e-03
 -7.331176273686063408e-03
 -7.311060963229127838e-03
 -7.292201660466362916e-03
 -7.274578471616759828e-03
 -7.258151367785350798e-03
 -7.242865492386350683e-03
 -7.228656014121114838e-03
 -7.215452328649601260e-03
 -7.818129501966612424e-03
 -7.808343821678105472e-03
 -7.797430475255731630e-03
 -7.785300645624243510e-03
 -7.771871676857968619e-03
 -7.757071429094678991e-03
 -7.740843272607150251e-03
 -7.723151523387169690e-03
 -7.703987000697365591e-03
 -7.683372262940062029e-03
 -7.661365974629185359e-03
 -7.638065802588167238e-03
 -7.613609262673199513e-03
 -7.588172060483071475e-03
 -7.561963694635504170e-03
 -7.535220399131382918e-03
 -7.508195846319934766e-03
 -7.481150350431824830e-03
 -7.454339536998620848e-03
 -7.428003525213846235e-03
 -7.402357589501125899e-03
 -7.377585041871301437e-03
 -7.353832758373066852e-03
 -7.331209427686597065e-03
 -7.309786291449571483e-03
 -7.289599920261675796e-03
 -7.270656446823616642e-03
 -7.252936654502466739e-03
 -7.236401374565194777e-03
 -7.220996749456366250e-03
 -7.206659044245227082e-03
 -7.193318810961238895e-03
 -7.795666706754020465e-03
 -7.785876728121136903e-03
 -7.774962585475274010e-03
 -7.762835897802162523e-03
 -7.749414401765451245e-03
 -7.734626276483264756e-03
 -7.718415102991753318e-03
 -7.700745262201929599e-03
 -7.681607454147775828e-03
 -7.661023898148323387e-03
 -7.639052670682057976e-03
 -7.615790583503207443e-03
 -7.591374027539691573e-03
 -7.565977329346134338e-03
 -7.539808390363014756e-03
 -7.513101684845016094e-03
 -7.486109034815711417e-03
 -7.459088896455828843e-03
 -7.432295116029289696e-03
 -7.405966194566889448e-03
 -7.380316020344636178e-03
 -7.355526805141006201e-03
 -7.331744644368889258e-03
 -7.309077778448756606e-03
 -7.287597326665494826e-03
 -7.267340040755493336e-03
 -7.248312503948782688e-03
 -7.230496178205684035e-03
 -7.213852756959583321e-03
 -7.198329384104129418e-03
 -7.183863423764422391e-03
 -7.170386587185753093e-03
 -7.772398169812125106e-03
 -7.762604047743129100e-03
 -7.751689288375221247e-03
 -7.739565948953260922e-03
 -7.726152160746094406e-03
 -7.711376423576356970e-03
 -7.695182530528165733e-03
 -7.677534928119740532e-03
 -7.658424197097797766e-03
 -7.637872216741239083e-03
 -7.615936473515013024e-03
 -7.592712921032576320e-03
 -7.568336821106772146e-03
 -7.542981116008760575e-03
 -7.516852103835773395e-03
 -7.490182492225163149e-03
 -7.463222245575506369e-03
 -7.436227954607898052e-03
 -7.409451679132062277e-03
 -7.383130295369982714e-03
 -7.357476299612887398e-03
 -7.332670798589558531e-03
 -7.308859103399369811e-03
 -7.286149003716228291e-03
 -7.264611495144118226e-03
 -7.244283510307001316e-03
 -7.225172083653365676e-03
 -7.207259357210430220e-03
 -7.190507888677847952e-03
 -7.174865825942378615e-03
 -7.160271635044547500e-03
 -7.146658189468483614e-03
 -7.748324412817416545e-03
 -7.738526334913470132e-03
 -7.727611174555805255e-03
 -7.715491429720482824e-03
 -7.702085628550365409e-03
 -7.687322593523135059e-03
 -7.671146331225413631e-03
 -7.653521354589857412e-03
 -7.634438125051001139e-03
 -7.613918180834886029e-03
 -7.592018416258226529e-03
 -7.568833923444215697e-03
 -7.544498830513952058e-03
 -7.519184689707829848e-03
 -7.493096189009795099e-03
 -7.466464261888850797e-03
 -7.439537007076632222e-03
 -7.412569141667790275e-03
 -7.385810931077194975e-03
 -7.359497619367834365e-03
 -7.333840304372452913e-03
 -7.309018982399773968e-03
 -7.285178176112751779e-03
 -7.262425221613647876e-03
 -7.240830989267639343e-03
 -7.220432592195720131e-03
 -7.201237516709910191e-03
 -7.183228586405461351e-03
 -7.166369225415816779e-03
 -7.150608588296905252e-03
 -7.135886246002049599e-03
 -7.122136237449789263e-03
 -7.723446033616471716e-03
 -7.713644220290009727e-03
 -7.702728911000295865e-03
 -7.690613047176982596e-03
 -7.677215556367009142e-03
 -7.662465585853989701e-03
 -7.646307357367566719e-03
 -7.628705451170438197e-03
 -7.609650209403248135e-03
 -7.589162828175304368e-03
 -7.567299607361352605e-03
 -7.544154773986182401e-03
 -7.519861317522975874e-03
 -7.494589393944996701e-03
 -7.468542073773873184e-03
 -7.441948508087282629e-03
 -7.415054921203594225e-03
 -7.388114147677486004e-03
 -7.361374649873144403e-03
 -7.335070031645652203e-03
 -7.309409985276208062e-03
 -7.284573390752102466e-03
 -7.260703977736190050e-03
 -7.237908625602628224e-03
 -7.216258077686574755e-03
 -7.195789627083118249e-03
 -7.176511212554465349e-03
 -7.158406340774057380e-03
 -7.141439304556882611e-03
 -7.125560267900171198e-03
 -7.110709909806751418e-03
 -7.096823437972318502e-03
 -7.697763706211757304e-03
 -7.687958410821862584e-03
 -7.677043241066078272e-03
 -7.664931584818342018e-03
 -7.651542771789209690e-03
 -7.636806276445949788e-03
 -7.620666537466500023e-03
 -7.603088203476423244e-03
 -7.584061497375740001e-03
 -7.563607272048318737e-03
 -7.541781230494562678e-03
 -7.518676730771617876e-03
 -7.494425618385348008e-03
 -7.469196646339578208e-03
 -7.443191259775096442e-03
 -7.416636818523950764e-03
 -7.389777663041916661e-03
 -7.362864735728585908e-03
 -7.336144686523653202e-03
 -7.309849470371335839e-03
 -7.284187366298974786e-03
 -7.259336131542519846e-03
 -7.235438697786336811e-03
 -7.212601484181489948e-03
 -7.190895105018514817e-03
 -7.170357032699084358e-03
 -7.150995658964373787e-03
 -7.132795175085688937e-03
 -7.115720744853663848e-03
 -7.099723544577951802e-03
 -7.084745364571758131e-03
 -7.070722584781856390e-03
 -7.671278180766532943e-03
 -7.661469689740814555e-03
 -7.650554984475055678e-03
 -7.638447902534165924e-03
 -7.625068178794226423e-03
 -7.610345617491780928e-03
 -7.594224876220615275e-03
 -7.576670673118028956e-03
 -7.557673111944401660e-03
 -7.537252701204683221e-03
 -7.515464544448713889e-03
 -7.492401126659071348e-03
 -7.468193143708667069e-03
 -7.443007938473924189e-03
 -7.417045322254118070e-03
 -7.390530854158934744e-03
 -7.363706980673494912e-03
 -7.336822741728435404e-03
 -7.310122964792038422e-03
 -7.283837946539639674e-03
 -7.258174544458669171e-03
 -7.233309386103692687e-03
 -7.209384599769924802e-03
 -7.186506140582952888e-03
 -7.164744491532344141e-03
 -7.144137303528513144e-03
 -7.124693421747007628e-03
 -7.106397723570952694e-03
 -7.089216246107791011e-03
 -7.073101180938542835e-03
 -7.057995433041457795e-03
 -7.043836558212649215e-03
 -7.643990283612117978e-03
 -7.634178916558908776e-03
 -7.623265037307627202e-03
 -7.611162936602770476e-03
 -7.597792757721182587e-03
 -7.583084637458205497e-03
 -7.566983454465265983e-03
 -7.549453997646440526e-03
 -7.530486251768934991e-03
 -7.510100379765385394e-03
 -7.488350883031512015e-03
 -7.465329369139165130e-03
 -7.441165378321074574e-03
 -7.416024835738939218e-03
 -7.390105909867901619e-03
 -7.363632349023168169e-03
 -7.336844694963750961e-03
 -7.309990074177989856e-03
 -7.283311480952014104e-03
 -7.257037543711084872e-03
 -7.231373689548577233e-03
 -7.206495408908981590e-03
 -7.182544020888236361e-03
 -7.159625012459311551e-03
 -7.137808732837802421e-03
 -7.117133010487585072e-03
 -7.097607144407582815e-03
 -7.079216699592690357e-03
 -7.061928588846803218e-03
 -7.045696022034721000e-03
 -7.030463022259425022e-03
 -7.016168324870553780e-03
 -7.615900917240580464e-03
 -7.606087027067628611e-03
 -7.595174371985792539e-03
 -7.583077699663675654e-03
 -7.569717565237022230e-03
 -7.555024441054858028e-03
 -7.538943429127050073e-03
 -7.521439390493518153e-03
 -7.502502191116217772e-03
 -7.482151647136964061e-03
 -7.460441654965946877e-03
 -7.437462940206483568e-03
 -7.413343881130381521e-03
 -7.388248977178569002e-03
 -7.362374744514433265e-03
 -7.335943110019242999e-03
 -7.309192699349723044e-03
 -7.282368713936602546e-03
 -7.255712303538727238e-03
 -7.229450417745925637e-03
 -7.203787043851031004e-03
 -7.178896527283300071e-03
 -7.154919371729534343e-03
 -7.131960591573192898e-03
 -7.110090399555195687e-03
 -7.089346800593461159e-03
 -7.069739547817519010e-03
 -7.051254895313360631e-03
 -7.033860633976762866e-03
 -7.017510995034862038e-03
 -7.002151123242207099e-03
 -6.987720937292792207e-03
 </DataArray>
 <DataArray Name="pos.y" type="Float32" NumberOfComponents="1" format="ascii">
 1.706275081004010076e-03
 1.702338557112437634e-03
 1.697934678057884048e-03
 1.693026030422974939e-03
 1.687577843886651314e-03
 1.681559857185765732e-03
 1.674948458111048984e-03
 1.667729012553188913e-03
 1.659898245191723841e-03
 1.651466481075009561e-03
 1.642459512829415194e-03
 1.632919834753053826e-03
 1.622906995040634005e-03
 1.612496869950382069e-03
 1.601779760565130847e-03
 1.590857345252054151e-03
 1.579838669330073213e-03
 1.568835490439946878e-03
 1.557957395061708829e-03
 1.547307136813784196e-03
 1.536976612445985864e-03
 1.527043794806969435e-03
 1.517570805175598924e-03
 1.508603158813884423e-03
 1.500170084896751627e-03
 1.492285724868791389e-03
 1.484950960551129377e-03
 1.478155613307425122e-03
 1.471880779166346524e-03
 1.466101109529809087e-03
 1.460786900662953665e-03
 1.455905907804586671e-03
 1.796612387685638966e-03
 1.792477575652175669e-03
 1.787853508814269635e-03
 1.782701087577317611e-03
 1.776983969248419797e-03
 1.770670514633027612e-03
 1.763736020490677637e-03
 1.756165149224722709e-03
 1.747954412509466603e-03
 1.739114509943033267e-03
 1.729672277377250749e-03
 1.719671975097252165e-03
 1.709175656436799726e-03
 1.698262412221132958e-03
 1.687026387422776259e-03
 1.675573604520959195e-03
 1.664017782821330602e-03
 1.652475485829325158e-03
 1.641061029864017591e-03
 1.629881623798969852e-03
 1.619033173593674565e-03
 1.608597084524469910e-03
 1.598638251268138773e-03
 1.589204271118794609e-03
 1.580325777240733625e-03
 1.572017687619583007e-03
 1.564281110394089317e-03
 1.557105635826275345e-03
 1.550471769769688627e-03
 1.544353310141961420e-03
 1.538719523780129319e-03
 1.533537035933821204e-03
 1.886774509768991042e-03
 1.882441651540561192e-03
 1.877597829831333370e-03
 1.872202280437826718e-03
 1.866217107826037037e-03
 1.859609310954926219e-03
 1.852353106566658218e-03
 1.844432457750402269e-03
 1.835843658714582209e-03
 1.826597768829914129e-03
 1.816722640708664290e-03
 1.806264261610320996e-03
 1.795287138294618823e-03
 1.783873512455616843e-03
 1.772121298923002870e-03
 1.760140782490169330e-03
 1.748050270216932722e-03
 1.735971044641840570e-03
 1.724022068504005387e-03
 1.712314929739326480e-03
 1.700949477842235826e-03
 1.690010497859359894e-03
 1.679565619792002060e-03
 1.669664500077166916e-03
 1.660339167875611458e-03
 1.651605323593682015e-03
 1.643464319883694699e-03
 1.635905544531079513e-03
 1.628908950235821978e-03
 1.622447524837864309e-03
 1.616489553634511099e-03
 1.611000582554169202e-03
 1.976763044453508453e-03
 1.972232223554276197e-03
 1.967168902728619329e-03
 1.961530673231930665e-03
 1.955278104834212022e-03
 1.948376849521187481e-03
 1.940800054085361744e-03
 1.932530985888897442e-03
 1.923565717078231339e-03
 1.913915652425371948e-03
 1.903609635861477087e-03
 1.892695344295488831e-03
 1.881239688568509113e-03
 1.869328000562651450e-03
 1.857061894527278984e-03
 1.844555839820960497e-03
 1.831932649367228050e-03
 1.819318242359646782e-03
 1.806836148905120905e-03
 1.794602263907659357e-03
 1.782720318387527071e-03
 1.771278427616545083e-03
 1.760346921330950424e-03
 1.749977494042862392e-03
 1.740203564089952328e-03
 1.731041620752136545e-03
 1.722493279435100347e-03
 1.714547753670808781e-03
 1.707184479280631937e-03
 1.700375676416260307e-03
 1.694088695529524010e-03
 1.688288052587207403e-03
 2.066579362446517923e-03
 2.061850508065138626e-03
 2.056567771538654176e-03
 2.050687118229489823e-03
 2.044167600023422821e-03
 2.036973535653991297e-03
 2.029077011123306927e-03
 2.020460601088381290e-03
 2.011120150896158771e-03
 2.001067396724909471e-03
 1.990332149339856058e-03
 1.978963739562390311e-03
 1.967031435202222945e-03
 1.954623600497539665e-03
 1.941845482074935295e-03
 1.928815659934384006e-03
 1.915661375079959206e-03
 1.902513105195006776e-03
 1.889498872837617593e-03
 1.876738811667610701e-03
 1.864340475699077706e-03
 1.852395263843362909e-03
 1.840976172345186977e-03
 1.830136914468602624e-03
 1.819912292041683940e-03
 1.810319590238900628e-03
 1.801360705528688103e-03
 1.793024705070045801e-03
 1.785290543401302612e-03
 1.778129714454992167e-03
 1.771508679438926759e-03
 1.765390972521866568e-03
 2.156224607963760920e-03
 2.151297499043823558e-03
 2.145795262718495217e-03
 2.139672255739564089e-03