<VTKFile type="UnstructuredGrid" byte_order="BigEndian">
<UnstructuredGrid><Piece NumberOfPoints="660" NumberOfCells="608">
<Points>
 <DataArray type="Float32" NumberOfComponents="3" format="ascii">
 -3.362616524100303650e-03 8.892678655683994293e-03 0.000000000000000000e+00
 -3.356361063197255135e-03 8.864294737577438354e-03 0.000000000000000000e+00
 -3.349601756781339645e-03 8.833624422550201416e-03 0.000000000000000000e+00
 -3.342306474223732948e-03 8.800522424280643463e-03 0.000000000000000000e+00
 -3.334444016218185425e-03 8.764846250414848328e-03 0.000000000000000000e+00
 -3.325984813272953033e-03 8.726462721824645996e-03 0.000000000000000000e+00
 -3.316903021186590195e-03 8.685253560543060303e-03 0.000000000000000000e+00
 -3.307176055386662483e-03 8.641118183732032776e-03 0.000000000000000000e+00
 -3.296788316220045090e-03 8.593983016908168793e-03 0.000000000000000000e+00
 -3.285730024799704552e-03 8.543807081878185272e-03 0.000000000000000000e+00
 -3.274000948294997215e-03 8.490585722029209137e-03 0.000000000000000000e+00
 -3.261608770117163658e-03 8.434357121586799622e-03 0.000000000000000000e+00
 -3.248572349548339844e-03 8.375204168260097504e-03 0.000000000000000000e+00
 -3.234919859096407890e-03 8.313256315886974335e-03 0.000000000000000000e+00
 -3.220689250156283379e-03 8.248684927821159363e-03 0.000000000000000000e+00
 -3.205927088856697083e-03 8.181701414287090302e-03 0.000000000000000000e+00
 -3.190686926245689392e-03 8.112548850476741791e-03 0.000000000000000000e+00
 -3.175026969984173775e-03 8.041492663323879242e-03 0.000000000000000000e+00
 -3.159008687362074852e-03 7.968808524310588837e-03 0.000000000000000000e+00
 -3.142693312838673592e-03 7.894777692854404449e-03 0.000000000000000000e+00
 -3.126140683889389038e-03 7.819670252501964569e-03 0.000000000000000000e+00
 -3.109407145529985428e-03 7.743742316961288452e-03 0.000000000000000000e+00
 -3.092544386163353920e-03 7.667228113859891891e-03 0.000000000000000000e+00
 -3.075599204748868942e-03 7.590339053422212601e-03 0.000000000000000000e+00
 -3.058612346649169922e-03 7.513260934501886368e-03 0.000000000000000000e+00
 -3.041619900614023209e-03 7.436157669872045517e-03 0.000000000000000000e+00
 -3.024653065949678421e-03 7.359171751886606216e-03 0.000000000000000000e+00
 -3.007740480825304985e-03 7.282430306077003479e-03 0.000000000000000000e+00
 -2.990906825289130211e-03 7.206047419458627701e-03 0.000000000000000000e+00
 -2.974175848066806793e-03 7.130130659788846970e-03 0.000000000000000000e+00
 -2.957569900900125504e-03 7.054781541228294373e-03 0.000000000000000000e+00
 -2.941111102700233459e-03 6.980100180953741074e-03 0.000000000000000000e+00
 -2.924821805208921432e-03 6.906187161803245544e-03 0.000000000000000000e+00
 -3.281733952462673187e-03 8.944830857217311859e-03 0.000000000000000000e+00
 -3.275593044236302376e-03 8.916143327951431274e-03 0.000000000000000000e+00
 -3.268959932029247284e-03 8.885157294571399689e-03 0.000000000000000000e+00
 -3.261803882196545601e-03 8.851727470755577087e-03 0.000000000000000000e+00
 -3.254094393923878670e-03 8.815712295472621918e-03 0.000000000000000000e+00
 -3.245803061872720718e-03 8.776978589594364166e-03 0.000000000000000000e+00
 -3.236903809010982513e-03 8.735406212508678436e-03 0.000000000000000000e+00
 -3.227375680580735207e-03 8.690895512700080872e-03 0.000000000000000000e+00
 -3.217202844098210335e-03 8.643371984362602234e-03 0.000000000000000000e+00
 -3.206375753507018089e-03 8.592792786657810211e-03 0.000000000000000000e+00
 -3.194893244653940201e-03 8.539152331650257111e-03 0.000000000000000000e+00
 -3.182763233780860901e-03 8.482486940920352936e-03 0.000000000000000000e+00
 -3.170002717524766922e-03 8.422876708209514618e-03 0.000000000000000000e+00
 -3.156638937070965767e-03 8.360447362065315247e-03 0.000000000000000000e+00
 -3.142707748338580132e-03 8.295367471873760223e-03 0.000000000000000000e+00
 -3.128253854811191559e-03 8.227845653891563416e-03 0.000000000000000000e+00
 -3.113328013569116592e-03 8.158119395375251770e-03 0.000000000000000000e+00
 -3.097986569628119469e-03 8.086451329290866852e-03 0.000000000000000000e+00
 -3.082287963479757309e-03 8.013114333152770996e-03 0.000000000000000000e+00
 -3.066291334107518196e-03 7.938385941088199615e-03 0.000000000000000000e+00
 -3.050053957849740982e-03 7.862533442676067352e-03 0.000000000000000000e+00
 -3.033630782738327980e-03 7.785811554640531540e-03 0.000000000000000000e+00
 -3.017071401700377464e-03 7.708454038947820663e-03 0.000000000000000000e+00
 -3.000420983880758286e-03 7.630671840161085129e-03 0.000000000000000000e+00
 -2.983719808980822563e-03 7.552652154117822647e-03 0.000000000000000000e+00
 -2.967003267258405685e-03 7.474559824913740158e-03 0.000000000000000000e+00
 -2.950302092358469963e-03 7.396540604531764984e-03 0.000000000000000000e+00
 -2.933644456788897514e-03 7.318724412471055984e-03 0.000000000000000000e+00
 -2.917055739089846611e-03 7.241229992359876633e-03 0.000000000000000000e+00
 -2.900559687986969948e-03 7.164167705923318863e-03 0.000000000000000000e+00
 -2.884178888052701950e-03 7.087645120918750763e-03 0.000000000000000000e+00
 -2.867936156690120697e-03 7.011766079813241959e-03 0.000000000000000000e+00
 -2.851853612810373306e-03 6.936636753380298615e-03 0.000000000000000000e+00
 -3.200350096449255943e-03 8.995996788144111633e-03 0.000000000000000000e+00
 -3.194325836375355721e-03 8.967008441686630249e-03 0.000000000000000000e+00
 -3.187821945175528526e-03 8.935710415244102478e-03 0.000000000000000000e+00
 -3.180807922035455704e-03 8.901957422494888306e-03 0.000000000000000000e+00
 -3.173254430294036865e-03 8.865608833730220795e-03 0.000000000000000000e+00
 -3.165133530274033546e-03 8.826529607176780701e-03 0.000000000000000000e+00
 -3.156420309096574783e-03 8.784600533545017242e-03 0.000000000000000000e+00
 -3.147094277665019035e-03 8.739721961319446564e-03 0.000000000000000000e+00
 -3.137139603495597839e-03 8.691817522048950195e-03 0.000000000000000000e+00
 -3.126546973362565041e-03 8.640844374895095825e-03 0.000000000000000000e+00
 -3.115314990282058716e-03 8.586794137954711914e-03 0.000000000000000000e+00
 -3.103450639173388481e-03 8.529701270163059235e-03 0.000000000000000000e+00
 -3.090970218181610107e-03 8.469644002616405487e-03 0.000000000000000000e+00
 -3.077899338677525520e-03 8.406744338572025299e-03 0.000000000000000000e+00
 -3.064271993935108185e-03 8.341167122125625610e-03 0.000000000000000000e+00
 -3.050130791962146759e-03 8.273117244243621826e-03 0.000000000000000000e+00
 -3.035524627193808556e-03 8.202829398214817047e-03 0.000000000000000000e+00
 -3.020506585016846657e-03 8.130560629069805145e-03 0.000000000000000000e+00
 -3.005133476108312607e-03 8.056581951677799225e-03 0.000000000000000000e+00
 -2.989461412653326988e-03 7.981166243553161621e-03 0.000000000000000000e+00
 -2.973546041175723076e-03 7.904578000307083130e-03 0.000000000000000000e+00
 -2.957439515739679337e-03 7.827071473002433777e-03 0.000000000000000000e+00
 -2.941190497949719429e-03 7.748879026621580124e-03 0.000000000000000000e+00
 -2.924842759966850281e-03 7.670210674405097961e-03 0.000000000000000000e+00
 -2.908435417339205742e-03 7.591255474835634232e-03 0.000000000000000000e+00
 -2.892002929002046585e-03 7.512179668992757797e-03 0.000000000000000000e+00
 -2.875576028600335121e-03 7.433131337165832520e-03 0.000000000000000000e+00
 -2.859182888641953468e-03 7.354243658483028412e-03 0.000000000000000000e+00
 -2.842848422005772591e-03 7.275639567524194717e-03 0.000000000000000000e+00
 -2.826596610248088837e-03 7.197434082627296448e-03 0.000000000000000000e+00
 -2.810450969263911247e-03 7.119738031178712845e-03 0.000000000000000000e+00
 -2.794434083625674248e-03 7.042662240564823151e-03 0.000000000000000000e+00
 -2.778568770736455917e-03 6.966315675526857376e-03 0.000000000000000000e+00
 -3.118471475318074226e-03 9.046156890690326691e-03 0.000000000000000000e+00
 -3.112566890195012093e-03 9.016870521008968353e-03 0.000000000000000000e+00
 -3.106194548308849335e-03 8.985265158116817474e-03 0.000000000000000000e+00
 -3.099325578659772873e-03 8.951193653047084808e-03 0.000000000000000000e+00
 -3.091930644586682320e-03 8.914515376091003418e-03 0.000000000000000000e+00
 -3.083983436226844788e-03 8.875097148120403290e-03 0.000000000000000000e+00
 -3.075459506362676620e-03 8.832818828523159027e-03 0.000000000000000000e+00
 -3.066338598728179932e-03 8.787578903138637543e-03 0.000000000000000000e+00
 -3.056605346500873566e-03 8.739302866160869598e-03 0.000000000000000000e+00
 -3.046250902116298676e-03 8.687944151461124420e-03 0.000000000000000000e+00
 -3.035272937268018723e-03 8.633493445813655853e-03 0.000000000000000000e+00
 -3.023678204044699669e-03 8.575984276831150055e-03 0.000000000000000000e+00
 -3.011481836438179016e-03 8.515490218997001648e-03 0.000000000000000000e+00
 -2.998707816004753113e-03 8.452131412923336029e-03 0.000000000000000000e+00
 -2.985388739034533501e-03 8.386068977415561676e-03 0.000000000000000000e+00
 -2.971565118059515953e-03 8.317503146827220917e-03 0.000000000000000000e+00
 -2.957283053547143936e-03 8.246665820479393005e-03 0.000000000000000000e+00
 -2.942594233900308609e-03 8.173808455467224121e-03 0.000000000000000000e+00
 -2.927551977336406708e-03 8.099199272692203522e-03 0.000000000000000000e+00
 -2.912210533395409584e-03 8.023106493055820465e-03 0.000000000000000000e+00
 -2.896623453125357628e-03 7.945793680846691132e-03 0.000000000000000000e+00
 -2.880840795114636421e-03 7.867512293159961700e-03 0.000000000000000000e+00
 -2.864909358322620392e-03 7.788492832332849503e-03 0.000000000000000000e+00
 -2.848871750757098198e-03 7.708946708589792252e-03 0.000000000000000000e+00
 -2.832766156643629074e-03 7.629062514752149582e-03 0.000000000000000000e+00
 -2.816626103594899178e-03 7.549008820205926895e-03 0.000000000000000000e+00
 -2.800482558086514473e-03 7.468936499208211899e-03 0.000000000000000000e+00
 -2.784362528473138809e-03 7.388981990516185760e-03 0.000000000000000000e+00
[...]
<CellData>
 <DataArray Name="pos.x" type="Float32" NumberOfComponents="1" format="ascii">
 -3.319029445914598898e-03
 -3.312585181181774713e-03
 -3.305627179723825883e-03
 -3.298124123388046242e-03
 -3.290046104186003170e-03
 -3.281365658122955935e-03
 -3.272058947546623627e-03
 -3.262107050349915844e-03
 -3.251497288321501984e-03
 -3.240224500392481239e-03
 -3.228292144241912045e-03
 -3.215713097696422385e-03
 -3.202510035691177436e-03
 -3.188715283714163226e-03
 -3.174370095493407595e-03
 -3.159523366962567123e-03
 -3.144229870654466612e-03
 -3.128548161244205147e-03
 -3.112538350022497728e-03
 -3.096259963050573393e-03
 -3.079770080697235689e-03
 -3.063121909158075893e-03
 -3.046363868041628443e-03
 -3.029539206170998606e-03
 -3.012686093824080112e-03
 -2.995838093335188336e-03
 -2.979024885563960959e-03
 -2.962273126334474208e-03
 -2.945607320063354118e-03
 -2.929050621277224861e-03
 -2.912625502507488594e-03
 -2.896354254272768929e-03
 -3.237954522612168737e-03
 -3.231631953441319385e-03
 -3.224808116663917257e-03
 -3.217452613495459714e-03
 -3.209536396512297635e-03
 -3.201032761778121842e-03
 -3.191918483401076298e-03
 -3.182175050712888510e-03
 -3.171789943371369682e-03
 -3.160757854306845901e-03
 -3.149081749125984091e-03
 -3.136773639071062814e-03
 -3.123854948754053312e-03
 -3.110356383887400485e-03
 -3.096317248963471273e-03
 -3.081784226216202627e-03
 -3.066809696077266341e-03
 -3.051449742922424883e-03
 -3.035762034854816091e-03
 -3.019803782480893605e-03
 -3.003629965350820396e-03
 -2.987291969748571800e-03
 -2.970836717992528849e-03
 -2.954306300706531583e-03
 -2.937738062483544882e-03
 -2.921165047167616907e-03
 -2.904616685696570760e-03
 -2.888119606246476821e-03
 -2.871698459004692981e-03
 -2.855376670391411402e-03
 -2.839177068156296165e-03
 -2.823122344841798304e-03
 -3.156382859339799517e-03
 -3.150184634134476150e-03
 -3.143497714773742669e-03
 -3.136292622016636708e-03
 -3.128541169827890774e-03
 -3.120217416232771122e-03
 -3.111298750578270298e-03
 -3.101767079228005732e-03
 -3.091610047958863287e-03
 -3.080822215100337703e-03
 -3.069406069113046667e-03
 -3.057372773298634369e-03
 -3.044742524236859239e-03
 -3.031544433426566071e-03
 -3.017815884242378184e-03
 -3.003601374854902167e-03
 -2.988950923443372317e-03
 -2.973918172666781354e-03
 -2.958558373228092116e-03
 -2.942926441826625855e-03
 -2.927075273262670640e-03
 -2.911054443564940145e-03
 -2.894909380429932112e-03
 -2.878681011761259623e-03
 -2.862405844903145001e-03
 -2.846116387041928986e-03
 -2.829841795085259824e-03
 -2.813608640323103562e-03
 -2.797441685235473735e-03
 -2.781364591330924476e-03
 -2.765400502334578337e-03
 -2.749572471972836721e-03
 -3.074321361545452949e-03
 -3.068250143967022996e-03
 -3.061702907588975241e-03
 -3.054651092530199022e-03
 -3.047067374647815033e-03
 -3.038926575577239036e-03
 -3.030206703224313548e-03
 -3.020890086548945561e-03
 -3.010964545831677688e-03
 -3.000424516530924603e-03
 -2.989272025439083415e-03
 -2.977517407346871783e-03
 -2.965179654119756269e-03
 -2.952286309854461246e-03
 -2.938872866366449427e-03
 -2.924981668980663509e-03
 -2.910660405129498335e-03
 -2.895960305995022663e-03
 -2.880934232247523222e-03
 -2.865634829653916464e-03
 -2.850112925546340655e-03
 -2.834416296302623688e-03
 -2.818588878320425414e-03
 -2.802670432611430781e-03
 -2.786696617756977048e-03
 -2.770699385889586943e-03
 -2.754707595302021556e-03
 -2.738747730472926648e-03
 -2.722844631840788329e-03
 -2.707022158210804167e-03
 -2.691303728964241759e-03
 -2.675712717036650770e-03
 -2.991777010453865789e-03
 -2.985835478763086519e-03
 -2.979430703021023700e-03
 -2.972535042156488911e-03
 -2.965122034097064738e-03
 -2.957167265476413117e-03
 -2.948649365917205192e-03
 -2.939551092508081807e-03
 -2.929860448552623706e-03
 -2.919571758700077301e-03
 -2.908686604108042407e-03
 -2.897214511282380969e-03
 -2.885173291729177698e-03
 -2.872588950219366437e-03
 -2.859495118026615483e-03
 -2.845932020449007307e-03
 -2.831945047355566292e-03
 -2.817583050370334879e-03
 -2.802896529098796927e-03
 -2.787935882798569555e-03
 -2.772749889844850716e-03
 -2.757384538532571278e-03
 -2.741882277949323453e-03
 -2.726281698400775250e-03
 -2.710617598246496847e-03
 -2.694921355942608149e-03
 -2.679221506104861438e-03
 -2.663544415786106394e-03
 -2.647914968187860089e-03
 -2.632357180628746001e-03
 -2.616894706742464716e-03
 -2.601551195558245502e-03
 -2.908756863061268908e-03
 -2.902947709448049692e-03
 -2.896688183327597588e-03
 -2.889951561517138320e-03
 -2.882712243859395732e-03
 -2.874946583109280664e-03
 -2.866633833596810444e-03
 -2.857757186038572834e-03
 -2.848304835414044653e-03
 -2.838271007959537393e-03
 -2.827656855792321563e-03
 -2.816471118163475611e-03
 -2.804730451623757993e-03
 -2.792459350973703399e-03
 -2.779689619438050884e-03
 -2.766459396727294871e-03
 -2.752811810029461449e-03
 -2.738793365029094408e-03
 -2.724452230856641132e-03
 -2.709836586150100000e-03
 -2.694993180086281085e-03
 -2.679966225422902339e-03
 -2.664796688603821625e-03
 -2.649521985780537228e-03
 -2.634176043692264008e-03
 -2.618789648271190474e-03
 -2.603390984917225599e-03
 -2.588006271950861470e-03
 -2.572660399275774386e-03
 -2.557377502943890529e-03
 -2.542181428347337763e-03
 -2.527096056345498956e-03
 -2.825268052129876941e-03
 -2.819593982030339004e-03
 -2.813482505083715699e-03
 -2.806907814694683222e-03
 -2.799845172126897829e-03
 -2.792271697108365206e-03
 -2.784167271496086615e-03
 -2.775515525096775623e-03
 -2.766304853352759361e-03
 -2.756529396819618581e-03
 -2.746189895734712106e-03
 -2.735294323936203909e-03
 -2.723858209483417166e-03
 -2.711904567855263903e-03
 -2.699463408212548869e-03
 -2.686570820756823286e-03
 -2.673267706595800972e-03
 -2.659598260813901289e-03
 -2.645608354297364698e-03
 -2.631343972440362573e-03
 -2.616849856243780390e-03
 -2.602168456465411665e-03
 -2.587339262261093183e-03
 -2.572398512553398641e-03
 -2.557379251128134596e-03
 -2.542311652324488486e-03
 -2.527223526309704468e-03
 -2.512140910671361617e-03
 -2.497088665085717574e-03
 -2.482091003555421220e-03
 -2.467171919641472991e-03
 -2.452355480615298240e-03
 -2.741317786183066190e-03
 -2.735781517584623661e-03
 -2.729820899152737065e-03
 -2.723411039192554384e-03
 -2.716528059549378187e-03
 -2.709149847499636114e-03
 -2.701256915071538912e-03
 -2.692833336585763980e-03
 -2.683867716866309740e-03
 -2.674354123859006265e-03
 -2.664292903651993907e-03
 -2.653691287331636905e-03
 -2.642563702000725896e-03
 -2.630931715771589550e-03
 -2.618823579234726313e-03
 -2.606273370818503170e-03
 -2.593319803888964256e-03
 -2.580004800010089316e-03
 -2.566371965716184554e-03
 -2.552465122037004489e-03
 -2.538327024100148037e-03
 -2.523998375206878541e-03
 -2.509517193280065735e-03
 -2.494918537321205807e-03
 -2.480234556900026959e-03
 -2.465494795474021655e-03
 -2.450726661483650266e-03
 -2.435955979087249274e-03
 -2.421207539931511700e-03
 -2.406505594180765976e-03
 -2.391874238873725050e-03
 -2.377337681115962442e-03
 -2.656913349500016498e-03
 -2.651517612234186895e-03
 -2.645710670657057135e-03
 -2.639468545894854343e-03
 -2.632768219183737740e-03
 -2.625588345642550919e-03
 -2.617910069935606987e-03
 -2.609717916278849782e-03
 -2.601000707930140737e-03
 -2.591752453635753645e-03
 -2.581973123640192262e-03
 -2.571669229765992642e-03
 -2.560854126774737404e-03
 -2.549547968687365228e-03
 -2.537777284541258786e-03
 -2.525574180402042311e-03
 -2.512975221990010766e-03
 -2.500020096187592113e-03
 -2.486750180749156772e-03
 -2.473207162741492861e-03
 -2.459431835017452089e-03
 -2.445463168984588626e-03
 -2.431337718098460464e-03
 -2.417089359137260165e-03
 -2.402749336267798359e-03
 -2.388346542560268373e-03
 -2.373907957757441251e-03
 -2.359459159194269261e-03
 -2.345024831810668328e-03
 -2.330629219132618595e-03
 -2.316296475879405133e-03
 -2.302050901247545273e-03
 -2.572062102110346180e-03
 -2.566809637133302905e-03
 -2.561159198948945344e-03
 -2.555087719026113112e-03
 -2.548573036444072744e-03
 -2.541594574170818847e-03
 -2.534134111788090456e-03
 -2.526176628744928720e-03
 -2.517711175915804227e-03
 -2.508731716599542447e-03
 -2.499237864081643549e-03
 -2.489235435242071349e-03
 -2.478736742207584068e-03
 -2.467760559514664033e-03
 -2.456331733203736840e-03
 -2.444480438080071961e-03
 -2.432241134088161932e-03
 -2.419651314046662033e-03
 -2.406750164200000420e-03
 -2.393577269592171101e-03
 -2.380171485711590675e-03
 -2.366570068667041369e-03
 -2.352808114933935268e-03
 -2.338918317162461385e-03
 -2.324931003011048575e-03
 -2.310874395442555525e-03
 -2.296775018054857988e-03
 -2.282658167266855224e-03
 -2.268548381756164446e-03
 -2.254469854596157126e-03
 -2.240446751278985741e-03
 -2.226503414178769742e-03
 -2.486771479788805941e-03
 -2.481665038450126849e-03
 -2.476173937581547906e-03
 -2.470276016111406028e-03
 -2.463949969051149221e-03
 -2.457175986932855129e-03
 -2.449936486349493878e-03
 -2.442216907273403199e-03
 -2.434006537510241021e-03
 -2.425299309005792860e-03
 -2.416094497553886687e-03
 -2.406397250253747636e-03
 -2.396218867403532120e-03
 -2.385576780006327252e-03
 -2.374494191215129231e-03
 -2.362999387384510496e-03
 -2.351124766346196146e-03
 -2.338905669268372990e-03
 -2.326379129871521036e-03
 -2.313582664672386800e-03
 -2.300553218031643841e-03
 -2.287326348399593146e-03
 -2.273935703489895609e-03
 -2.260412790326220538e-03
 -2.246787009038774159e-03
 -2.233085892552239254e-03
 -2.219335480396438139e-03
 -2.205560753282212287e-03
 -2.191786063189096138e-03
 -2.178035507905786913e-03
 -2.164333215675337454e-03
 -2.150703521961668235e-03
 -2.401048994050414276e-03
 -2.396091337348699255e-03
 -2.390762414279566650e-03
 -2.385040967936358832e-03
 -2.378906546982876603e-03
 -2.372340108933185948e-03
 -2.365324709293525635e-03
 -2.357846253801030786e-03
 -2.349894276636136248e-03
 -2.341462692830566673e-03
 -2.332550460740469289e-03
 -2.323162083692391702e-03
 -2.313307882070876967e-03
 -2.303003980652820748e-03
 -2.292271981379559453e-03
 -2.281138326688712803e-03
 -2.269633397770690151e-03
 -2.257790428370140545e-03
 -2.245644340402142870e-03
 -2.233230616923457743e-03
 -2.220584318744433031e-03
 -2.207739325354806260e-03
 -2.194727844666555933e-03
 -2.181580196991346216e-03
 -2.168324844003106672e-03
 -2.154988608448865119e-03
 -2.141597017393191780e-03
 -2.128174700346208148e-03
 -2.114745781271888236e-03
 -2.101334216821622563e-03
 -2.087964048849468620e-03
 -2.074659554643489522e-03
 -2.314902232144761506e-03
 -2.310096129971659935e-03
 -2.304932230910309958e-03
 -2.299390178507115020e-03
 -2.293450372424288720e-03
 -2.287094536273575392e-03
 -2.280306366181455557e-03
 -2.273072238838663370e-03
 -2.265381944373463449e-03
 -2.257229395687583313e-03
 -2.248613254343386630e-03
 -2.239537406755212189e-03
 -2.230011226426538169e-03
 -2.220049570581494793e-03
 -2.209672483206053493e-03
 -2.198904609092258190e-03
 -2.187774360086125382e-03
 -2.176312908565394052e-03
 -2.164553107107378572e-03
 -2.152528441962909753e-03
 -2.140272119324212324e-03
 -2.127816359488081052e-03
 -2.115191940276401217e-03
 -2.102427994623953540e-03
 -2.089552034917004347e-03
 -2.076590153380519777e-03
 -2.063567335743071891e-03
 -2.050507824121488958e-03
 -2.037435472262743002e-03
 -2.024374048805833732e-03
 -2.011347458955323533e-03
 -1.998379869376290356e-03
 -2.228338857050952623e-03
 -2.223687087422747660e-03
 -2.218691063454418001e-03
 -2.213331325010667490e-03
 -2.207589119718102871e-03
 -2.201446936095304702e-03
 -2.194889112396086143e-03
 -2.187902501399280851e-03
 -2.180477158882130652e-03
 -2.172607010746336123e-03
 -2.164290442997594474e-03
 -2.155530752856513362e-03
 -2.146336401103388775e-03
 -2.136721017459976887e-03
 -2.126703132805671161e-03
 -2.116305642310745139e-03
 -2.105555037614002898e-03
 -2.094480477628550118e-03
 -2.083112789826306165e-03
 -2.071483501907779492e-03
 -2.059623995747702184e-03
 -2.047564853298616643e-03
 -2.035335432764771597e-03
 -2.022963679467552119e-03
 -2.010476145776117930e-03
 -1.997898172846931334e-03
 -1.985254175730412525e-03
 -1.972567972257035888e-03
 -1.959863102871083236e-03
 -1.947163100299230962e-03
 -1.934491681713171578e-03
 -1.921872849523905682e-03
 -2.141366607472152891e-03
 -2.136871955748981516e-03
 -2.132046661976819135e-03
 -2.126872157775122965e-03
 -2.121330535315435906e-03
 -2.115405046520924155e-03
 -2.109080673076722118e-03
 -2.102344748926922562e-03
 -2.095187605325621750e-03
 -2.087603196651751682e-03
 -2.079589655187416217e-03
 -2.071149717541005773e-03
 -2.062290967060372796e-03
 -2.053025847402411685e-03
 -2.043371422792532310e-03
 -2.033348888569223335e-03
 -2.022982867156104293e-03
 -2.012300553764618648e-03
 -2.001330796773133532e-03
 -1.990103205203372968e-03
 -1.978647368294225457e-03
 -1.966992251595169917e-03
 -1.955165804935573085e-03
 -1.943194786222243210e-03
 -1.931104777184988784e-03
 -1.918920347166982185e-03
 -1.906665310728328363e-03
 -1.894363023820430690e-03
 -1.882036669614003043e-03
 -1.869709495997717939e-03
 -1.857404979602098006e-03
 -1.845146903767025176e-03
 -2.053993297830606149e-03
 -2.049658555923386527e-03
 -2.045006850597798180e-03
 -2.040020500229853661e-03
 -2.034682437726682922e-03
 -2.028976676597109979e-03
 -2.022888843054757545e-03
 -2.016406757226221064e-03
 -2.009521035796230787e-03
 -2.002225677445696600e-03
 -1.994518583164818764e-03
 -1.986401958399388549e-03
 -1.977882545495673623e-03
 -1.968971644878720218e-03
 -1.959684902188546258e-03
 -1.950041864500104980e-03
 -1.940065337882612879e-03
 -1.929780605483829604e-03
 -1.919214584394090227e-03
 -1.908395006457304539e-03
 -1.897349701351475808e-03
 -1.886106041267579005e-03
 -1.874690579682071262e-03
 -1.863128887728555515e-03
 -1.851445565987591604e-03
 -1.839664391049458192e-03
 -1.827808546704092580e-03
 -1.815900888731942922e-03
 -1.803964198174186611e-03
 -1.792021388129123221e-03
 -1.780095641051639491e-03
 -1.768210465205812768e-03
 -1.966226818262035124e-03
 -1.962054783827171106e-03
 -1.957579527463657910e-03
 -1.952784248866309882e-03
 -1.947652717472481837e-03
 -1.942169706237450999e-03
 -1.936321486789702260e-03
 -1.930096370392939261e-03
 -1.923485269241043041e-03
 -1.916482242489605387e-03
 -1.909084982869829056e-03
 -1.901295194986716772e-03
 -1.893118817762347045e-03
 -1.884566052627866103e-03
 -1.875651176332109819e-03
 -1.866392141045341993e-03
 -1.856809991224883487e-03
 -1.846928151481210022e-03
 -1.836771657229472081e-03
 -1.826366406278864991e-03
 -1.815738503226688085e-03
 -1.804913751063551850e-03
 -1.793917319722933149e-03
 -1.782773594656043240e-03
 -1.771506184902262721e-03
 -1.760138053167991561e-03
 -1.748691721727562397e-03
 -1.737189507201066180e-03
 -1.725653742759164239e-03
 -1.714106955730225609e-03
 -1.702571979632358252e-03
 -1.691071990460630333e-03
 -1.878075134610479330e-03
 -1.874068610232321273e-03
 -1.869772664717993336e-03
 -1.865171373198316320e-03
 -1.860249337035250637e-03
 -1.854992086166079232e-03
 -1.849386538306005412e-03
 -1.843421500745502390e-03
 -1.837088191389448519e-03
 -1.830380746389188244e-03
 -1.823296673852815419e-03
 -1.815837208742980199e-03
 -1.808007525287498541e-03
 -1.799816771574131282e-03
 -1.791277906790488157e-03
 -1.782407343362755721e-03
 -1.773224420772788251e-03
 -1.763750760521402058e-03
 -1.754009567781203731e-03
 -1.744024951124077769e-03
 -1.733821325963392102e-03
 -1.723422951370925460e-03
 -1.712853627343566493e-03
 -1.702136555197347224e-03
 -1.691294342161300465e-03
 -1.680349115739744213e-03
 -1.669322705483204617e-03
 -1.658236849165557096e-03
 -1.647113385461876356e-03
 -1.635974403924284103e-03
 -1.624842333245941732e-03
 -1.613739958770762321e-03
 -1.789546288423013486e-03
 -1.785708080783926423e-03
 -1.781594308472595183e-03
 -1.777189915722963151e-03
 -1.772480330810707275e-03
 -1.767451837861154767e-03
 -1.762092001130355400e-03
 -1.756390128757394755e-03
 -1.750337754681824875e-03
 -1.743929108920405646e-03
 -1.737161539198935154e-03
 -1.730035842916197554e-03
 -1.722556469493903043e-03
 -1.714731560746893084e-03
 -1.706572811276368300e-03
 -1.698095150737055159e-03
 -1.689316272177123889e-03
 -1.680256051328437574e-03
 -1.670935916385508186e-03
 -1.661378233146246696e-03
 -1.651605765163758959e-03
 -1.641641254005626101e-03
 -1.631507144142948802e-03
 -1.621225454766756597e-03
 -1.610817781155041324e-03
 -1.600305394108354025e-03
 -1.589709398785033555e-03
 -1.579050913732774584e-03
 -1.568351235622959241e-03
 -1.557631963199086105e-03
 -1.546915063314523815e-03
 -1.536222871091335197e-03
 </DataArray>
 <DataArray Name="pos.y" type="Float32" NumberOfComponents="1" format="ascii">
 8.904522134656481930e-03
 8.874838955051875602e-03
 8.842791121336485149e-03
 8.808234646758471287e-03
 8.771032048351680085e-03
 8.731057102387616148e-03
 8.688200282596758584e-03
 8.642374689398990562e-03
 8.593522158568536046e-03
 8.541619115588950165e-03
 8.486681639420767462e-03
 8.428769144078338688e-03
 8.367986106407125299e-03
 8.304481384321155471e-03
 8.238444885443547624e-03
 8.170101642079699231e-03
 8.099703680489770199e-03
 8.027520378930898606e-03
 7.953828225503818336e-03
 7.878900964793397396e-03
 7.803001043465027965e-03
 7.726373047717738536e-03
 7.649239518791614220e-03
 7.571799201147393597e-03
 7.494227483391320034e-03
 7.416678578890478421e-03
 7.339288880895659603e-03
 7.262180911818999669e-03
 7.185467347288305821e-03
 7.109254704254965723e-03
 7.033646410764080037e-03
 6.958745100542044863e-03
 8.956029161403426114e-03
 8.926037865274778424e-03
 8.893670512717812004e-03
 8.858783183985271745e-03
 8.821238378831520316e-03
 8.780909716000576473e-03
 8.737687306920085759e-03
 8.691483614929589735e-03
 8.642239493430556307e-03
 8.589929976079270849e-03
 8.534569291179351994e-03
 8.476214517908975399e-03
 8.414967321598711830e-03
 8.350973319154169489e-03
 8.284418837834825813e-03
 8.215525121690003124e-03
 8.144540366541264814e-03
 8.071730265862534295e-03
 7.997367962914791323e-03
 7.921724381135180487e-03
 7.845059827219228593e-03
 7.767617547601302942e-03
 7.689619617369617202e-03
 7.611265214537370379e-03
 7.532731042986118113e-03
 7.454173457918522247e-03
 7.375731737598848273e-03
 7.297531930513721093e-03
 7.219690767371731224e-03
 7.142319234562515516e-03
 7.065525532238248717e-03
 6.989417263963489460e-03
 9.006541482468979551e-03
 8.976245666396988690e-03
 8.943562956472349626e-03
 8.908349550458688482e-03
 8.870467977330483839e-03
 8.829791737995109496e-03
 8.786210611238290044e-03
 8.739636439448243699e-03
 8.690009092675221938e-03
 8.637302191307823229e-03
 8.581528068321148811e-03
 8.522741398364088589e-03
 8.461040940106440145e-03
 8.396568950082314992e-03
 8.329508034653536341e-03
 8.260075492709968714e-03
 8.188515522644743833e-03
 8.115089963334629758e-03
 8.040068448165250611e-03
 7.963718926416724422e-03
 7.886299430073838782e-03
 7.808051754089814778e-03
 7.729197421682234420e-03
 7.649935985843410446e-03
 7.570445433769902241e-03
 7.490884255241797920e-03
 7.411394628073724941e-03
 7.332106159654626018e-03
 7.253139683152552350e-03
 7.174610712645216812e-03
 7.096632286104579551e-03
 7.019317047109104556e-03
 9.056039657488778802e-03
 9.025443155761054409e-03
 8.992449501899691527e-03
 8.956915062275952813e-03
 8.918702442184006998e-03
 8.877685064984113320e-03
 8.833752407081818178e-03
 8.786815706643117188e-03
 8.736813849987706479e-03
 8.683719023395685896e-03
 8.627541620430690186e-03
 8.568333842096856681e-03
 8.506191445811018062e-03
 8.441253208889117066e-03
 8.373697876719328470e-03
 8.303738646514175273e-03
 8.231615552530732391e-03
 8.157586409391416257e-03
 8.081917175576994877e-03
 8.004872673027879637e-03
 7.926708523914163113e-03
 7.847664959416189578e-03
 7.767962864370844649e-03
 7.687802107166321480e-03
 7.607361925128733153e-03
 7.526802933927727660e-03
 7.446270223848527881e-03
 7.365896992223143307e-03
 7.285808220125613438e-03
 7.206124005516990894e-03
 7.126962287754285384e-03
 7.048440818389724478e-03
 9.104504020034679887e-03
 9.073610908901684133e-03