<VTKFile type="UnstructuredGrid" byte_order="BigEndian">
<UnstructuredGrid><Piece NumberOfPoints="2680" NumberOfCells="2527">
<Points>
 <DataArray type="Float32" NumberOfComponents="3" format="ascii">
 -2.686196472495794296e-03 1.963087171316146851e-02 0.000000000000000000e+00
 -2.679639495909214020e-03 1.954984664916992188e-02 0.000000000000000000e+00
 -2.673083217814564705e-03 1.946883462369441986e-02 0.000000000000000000e+00
 -2.666529035195708275e-03 1.938784681260585785e-02 0.000000000000000000e+00
 -2.659978112205862999e-03 1.930689811706542969e-02 0.000000000000000000e+00
 -2.653431380167603493e-03 1.922599971294403076e-02 0.000000000000000000e+00
 -2.646889537572860718e-03 1.914516650140285492e-02 0.000000000000000000e+00
 -2.640353981405496597e-03 1.906440779566764832e-02 0.000000000000000000e+00
 -2.633825410157442093e-03 1.898373663425445557e-02 0.000000000000000000e+00
 -2.627305220812559128e-03 1.890316791832447052e-02 0.000000000000000000e+00
 -2.620794344693422318e-03 1.882271282374858856e-02 0.000000000000000000e+00
 -2.614293480291962624e-03 1.874238438904285431e-02 0.000000000000000000e+00
 -2.607803791761398315e-03 1.866219379007816315e-02 0.000000000000000000e+00
 -2.601326443254947662e-03 1.858215406537055969e-02 0.000000000000000000e+00
 -2.594862133264541626e-03 1.850227639079093933e-02 0.000000000000000000e+00
 -2.588411793112754822e-03 1.842257380485534668e-02 0.000000000000000000e+00
 -2.581976819783449173e-03 1.834305748343467712e-02 0.000000000000000000e+00
 -2.575557911768555641e-03 1.826373860239982605e-02 0.000000000000000000e+00
 -2.569155767560005188e-03 1.818463020026683807e-02 0.000000000000000000e+00
 -2.562771784141659737e-03 1.810574345290660858e-02 0.000000000000000000e+00
 -2.556406427174806595e-03 1.802708953619003296e-02 0.000000000000000000e+00
 -2.550060860812664032e-03 1.794868148863315582e-02 0.000000000000000000e+00
 -2.543736016377806664e-03 1.787052676081657410e-02 0.000000000000000000e+00
 -2.537432825192809105e-03 1.779263839125633240e-02 0.000000000000000000e+00
 -2.531151985749602318e-03 1.771502755582332611e-02 0.000000000000000000e+00
 -2.524894429370760918e-03 1.763770543038845062e-02 0.000000000000000000e+00
 -2.518661087378859520e-03 1.756067946553230286e-02 0.000000000000000000e+00
 -2.512452425435185432e-03 1.748396269977092743e-02 0.000000000000000000e+00
 -2.506269840523600578e-03 1.740756630897521973e-02 0.000000000000000000e+00
 -2.500113798305392265e-03 1.733149588108062744e-02 0.000000000000000000e+00
 -2.493984997272491455e-03 1.725576445460319519e-02 0.000000000000000000e+00
 -2.487884368747472763e-03 1.718038134276866913e-02 0.000000000000000000e+00
 -2.481812844052910805e-03 1.710535585880279541e-02 0.000000000000000000e+00
 -2.475770656019449234e-03 1.703069545328617096e-02 0.000000000000000000e+00
 -2.469758968800306320e-03 1.695641130208969116e-02 0.000000000000000000e+00
 -2.463778480887413025e-03 1.688251085579395294e-02 0.000000000000000000e+00
 -2.457829657942056656e-03 1.680900156497955322e-02 0.000000000000000000e+00
 -2.451913198456168175e-03 1.673589460551738739e-02 0.000000000000000000e+00
 -2.446029800921678543e-03 1.666319556534290314e-02 0.000000000000000000e+00
 -2.440180163830518723e-03 1.659091375768184662e-02 0.000000000000000000e+00
 -2.434364985674619675e-03 1.651905663311481476e-02 0.000000000000000000e+00
 -2.428584732115268707e-03 1.644763164222240448e-02 0.000000000000000000e+00
 -2.422839868813753128e-03 1.637664437294006348e-02 0.000000000000000000e+00
 -2.417131327092647552e-03 1.630610413849353790e-02 0.000000000000000000e+00
 -2.411459106951951981e-03 1.623601652681827545e-02 0.000000000000000000e+00
 -2.405824372544884682e-03 1.616638712584972382e-02 0.000000000000000000e+00
 -2.400227123871445656e-03 1.609722338616847992e-02 0.000000000000000000e+00
 -2.394668059423565865e-03 1.602853275835514069e-02 0.000000000000000000e+00
 -2.389147644862532616e-03 1.596031710505485535e-02 0.000000000000000000e+00
 -2.383666345849633217e-03 1.589258573949337006e-02 0.000000000000000000e+00
 -2.378224628046154976e-03 1.582534424960613251e-02 0.000000000000000000e+00
 -2.372822724282741547e-03 1.575859449803829193e-02 0.000000000000000000e+00
 -2.367461100220680237e-03 1.569234207272529602e-02 0.000000000000000000e+00
 -2.362140221521258354e-03 1.562659442424774170e-02 0.000000000000000000e+00
 -2.356860553845763206e-03 1.556135434657335281e-02 0.000000000000000000e+00
 -2.351622097194194794e-03 1.549662556499242783e-02 0.000000000000000000e+00
 -2.346425550058484077e-03 1.543241180479526520e-02 0.000000000000000000e+00
 -2.341270912438631058e-03 1.536871865391731262e-02 0.000000000000000000e+00
 -2.336158649995923042e-03 1.530554704368114471e-02 0.000000000000000000e+00
 -2.331088995561003685e-03 1.524290256202220917e-02 0.000000000000000000e+00
 -2.326062181964516640e-03 1.518078800290822983e-02 0.000000000000000000e+00
 -2.321078442037105560e-03 1.511920522898435593e-02 0.000000000000000000e+00
 -2.316138008609414101e-03 1.505815703421831131e-02 0.000000000000000000e+00
 -2.311241114512085915e-03 1.499764714390039444e-02 0.000000000000000000e+00
 -2.306387759745121002e-03 1.493767555803060532e-02 0.000000000000000000e+00
 -2.301578409969806671e-03 1.487824693322181702e-02 0.000000000000000000e+00
 -2.296812832355499268e-03 1.481936126947402954e-02 0.000000000000000000e+00
 -2.292091492563486099e-03 1.476102042943239212e-02 0.000000000000000000e+00
 -2.287414390593767166e-03 1.470322627574205399e-02 0.000000000000000000e+00
 -2.282781526446342468e-03 1.464597973972558975e-02 0.000000000000000000e+00
 -2.278193132951855659e-03 1.458928268402814865e-02 0.000000000000000000e+00
 -2.273649210110306740e-03 1.453313510864973068e-02 0.000000000000000000e+00
 -2.269149990752339363e-03 1.447753701359033585e-02 0.000000000000000000e+00
 -2.264695009216666222e-03 1.442249026149511337e-02 0.000000000000000000e+00
 -2.260284963995218277e-03 1.436799392104148865e-02 0.000000000000000000e+00
 -2.255919156596064568e-03 1.431404985487461090e-02 0.000000000000000000e+00
 -2.251598285511136055e-03 1.426065620034933090e-02 0.000000000000000000e+00
 -2.247321885079145432e-03 1.420781295746564865e-02 0.000000000000000000e+00
 -2.243089955300092697e-03 1.415552105754613876e-02 0.000000000000000000e+00
 -2.238902496173977852e-03 1.410377863794565201e-02 0.000000000000000000e+00
 -2.234759507700800896e-03 1.405258569866418839e-02 0.000000000000000000e+00
 -2.230660989880561829e-03 1.400194037705659866e-02 0.000000000000000000e+00
 -2.226606709882616997e-03 1.395184267312288284e-02 0.000000000000000000e+00
 -2.222596667706966400e-03 1.390229072421789169e-02 0.000000000000000000e+00
 -2.218630630522966385e-03 1.385328453034162521e-02 0.000000000000000000e+00
 -2.214708598330616951e-03 1.380482036620378494e-02 0.000000000000000000e+00
 -2.210830338299274445e-03 1.375689916312694550e-02 0.000000000000000000e+00
 -2.206995850428938866e-03 1.370951719582080841e-02 0.000000000000000000e+00
 -2.203204901888966560e-03 1.366267353296279907e-02 0.000000000000000000e+00
 -2.199457492679357529e-03 1.361636631190776825e-02 0.000000000000000000e+00
 -2.195753157138824463e-03 1.357059273868799210e-02 0.000000000000000000e+00
 -2.192091895267367363e-03 1.352535095065832138e-02 0.000000000000000000e+00
 -2.188473241403698921e-03 1.348063815385103226e-02 0.000000000000000000e+00
 -2.184897661209106445e-03 1.343645341694355011e-02 0.000000000000000000e+00
 -2.181364223361015320e-03 1.339279301464557648e-02 0.000000000000000000e+00
 -2.177873160690069199e-03 1.334965415298938751e-02 0.000000000000000000e+00
 -2.174424007534980774e-03 1.330703403800725937e-02 0.000000000000000000e+00
 -2.171016763895750046e-03 1.326493080705404282e-02 0.000000000000000000e+00
 -2.167650964111089706e-03 1.322334073483943939e-02 0.000000000000000000e+00
 -2.164326375350356102e-03 1.318226102739572525e-02 0.000000000000000000e+00
 -2.161042997613549232e-03 1.314168889075517654e-02 0.000000000000000000e+00
 -2.157800365239381790e-03 1.310162059962749481e-02 0.000000000000000000e+00
 -2.154598245397210121e-03 1.306205242872238159e-02 0.000000000000000000e+00
 -2.151436405256390572e-03 1.302298251539468765e-02 0.000000000000000000e+00
 -2.148314611986279488e-03 1.298440620303153992e-02 0.000000000000000000e+00
 -2.145232399925589561e-03 1.294632069766521454e-02 0.000000000000000000e+00
 -2.142189536243677139e-03 1.290872227400541306e-02 0.000000000000000000e+00
 -2.139186020940542221e-03 1.287160720676183701e-02 0.000000000000000000e+00
 -2.136221155524253845e-03 1.283497177064418793e-02 0.000000000000000000e+00
 -2.133294939994812012e-03 1.279881317168474197e-02 0.000000000000000000e+00
 -2.130406908690929413e-03 1.276312582194805145e-02 0.000000000000000000e+00
 -2.127556828781962395e-03 1.272790785878896713e-02 0.000000000000000000e+00
 -2.124744234606623650e-03 1.269315462559461594e-02 0.000000000000000000e+00
 -2.121969126164913177e-03 1.265886239707469940e-02 0.000000000000000000e+00
 -2.119230804964900017e-03 1.262502651661634445e-02 0.000000000000000000e+00
 -2.116529271006584167e-03 1.259164325892925262e-02 0.000000000000000000e+00
 -2.113864058628678322e-03 1.255870983004570007e-02 0.000000000000000000e+00
 -2.111234702169895172e-03 1.252622064203023911e-02 0.000000000000000000e+00
 -2.108641201630234718e-03 1.249417290091514587e-02 0.000000000000000000e+00
 -2.106082858517765999e-03 1.246256195008754730e-02 0.000000000000000000e+00
 -2.103559672832489014e-03 1.243138313293457031e-02 0.000000000000000000e+00
 -2.101071178913116455e-03 1.240063365548849106e-02 0.000000000000000000e+00
 -2.098617143929004669e-03 1.237030792981386185e-02 0.000000000000000000e+00
 -2.096196869388222694e-03 1.234040316194295883e-02 0.000000000000000000e+00
 -2.093810355290770531e-03 1.231091376394033432e-02 0.000000000000000000e+00
 -2.091457368806004524e-03 1.228183694183826447e-02 0.000000000000000000e+00
 -2.089137211441993713e-03 1.225316803902387619e-02 0.000000000000000000e+00
[...]
<CellData>
 <DataArray Name="pos.x" type="Float32" NumberOfComponents="1" format="ascii">
 -2.616768745515576141e-03
 -2.610375032763240320e-03
 -2.603982830599541748e-03
 -2.597593143417520518e-03
 -2.591206974017599626e-03
 -2.584825322973650225e-03
 -2.578449188001981189e-03
 -2.572079563333985047e-03
 -2.565717439093860575e-03
 -2.559363800681642778e-03
 -2.553019628162476150e-03
 -2.546685895663445675e-03
 -2.540363570777848072e-03
 -2.534053613978342646e-03
 -2.527756978040034738e-03
 -2.521474607472694220e-03
 -2.515207437964846453e-03
 -2.508956395839089925e-03
 -2.502722397519224762e-03
 -2.496506349010758127e-03
 -2.490309145394750071e-03
 -2.484131670335251382e-03
 -2.477974795601851302e-03
 -2.471839380606687640e-03
 -2.465726271957598050e-03
 -2.459636303026596724e-03
 -2.453570293535129333e-03
 -2.447529049155979571e-03
 -2.441513361132135237e-03
 -2.435524005913108653e-03
 -2.429561744809011561e-03
 -2.423627323662286455e-03
 -2.417721472537746625e-03
 -2.411844905430751435e-03
 -2.405998319993727600e-03
 -2.400182397281250268e-03
 -2.394397801513807513e-03
 -2.388645179859647579e-03
 -2.382925162235899775e-03
 -2.377238361127574726e-03
 -2.371585371425507377e-03
 -2.365966770282435221e-03
 -2.360383116987311083e-03
 -2.354834952858003531e-03
 -2.349322801151380521e-03
 -2.343847166991682232e-03
 -2.338408537316037736e-03
 -2.333007380837098192e-03
 -2.327644148022997312e-03
 -2.322319271093410513e-03
 -2.317033164032450410e-03
 -2.311786222617122789e-03
 -2.306578824461513917e-03
 -2.301411329076089897e-03
 -2.296284077942209977e-03
 -2.291197394600241830e-03
 -2.286151584752565535e-03
 -2.281146936379425342e-03
 -2.276183719868212114e-03
 -2.271262188155256153e-03
 -2.266382576879869340e-03
 -2.261545104549918857e-03
 -2.256749972718889111e-03
 -2.251997366173235770e-03
 -2.247287453130549732e-03
 -2.242620385447021379e-03
 -2.237996298834229406e-03
 -2.233415313084873444e-03
 -2.228877532306761371e-03
 -2.224383045164288891e-03
 -2.219931925127732741e-03
 -2.215524230728768088e-03
 -2.211160005822818998e-03
 -2.206839279857014235e-03
 -2.202562068143515059e-03
 -2.198328372137985185e-03
 -2.194138179722289993e-03
 -2.189991465491386829e-03
 -2.185888191043728127e-03
 -2.181828305274962233e-03
 -2.177811744673992158e-03
 -2.173838433621989863e-03
 -2.169908284692648268e-03
 -2.166021198954630727e-03
 -2.162177066274617240e-03
 -2.158375765621457863e-03
 -2.154617165370878613e-03
 -2.150901123609741134e-03
 -2.147227488440889981e-03
 -2.143596098286587853e-03
 -2.140006782191731377e-03
 -2.136459360125612765e-03
 -2.132953643282298455e-03
 -2.129489434379211454e-03
 -2.126066527954014514e-03
 -2.122684710658918547e-03
 -2.119343761552889855e-03
 -2.116043452390813356e-03
 -2.112783547910197703e-03
 -2.109563806114432647e-03
 -2.106383978553011925e-03
 -2.103243810598234235e-03
 -2.100143041718315496e-03
 -2.097081405746677781e-03
 -2.094058631147541552e-03
 -2.091074441277214480e-03
 -2.088128554641502724e-03
 -2.085220685148695633e-03
 -2.082350542358155955e-03
 -2.079517831724696838e-03
 -2.076722254838211761e-03
 -2.073963509658767294e-03
 -2.071241290747018616e-03
 -2.068555289489962951e-03
 -2.065905194321945946e-03
 -2.063290690940662933e-03
 -2.060711462518594831e-03
 -2.058167189909416821e-03
 -2.055657551849570611e-03
 -2.053182225154926571e-03
 -2.050740884912687512e-03
 -2.048333204668170270e-03
 -2.045958856606905265e-03
 -2.043617511731792534e-03
 -2.041308840035374519e-03
 -2.039032510667457190e-03
 -2.036788192097598992e-03
 -2.034575552273297245e-03
 -2.032394258772956055e-03
 -2.030243978954552556e-03
 -2.028124380099596835e-03
 -2.026035129552168287e-03
 -2.023975894854068789e-03
 -2.484165347655549732e-03
 -2.478098784740638983e-03
 -2.472033657886168502e-03
 -2.465970921815483375e-03
 -2.459911529736108233e-03
 -2.453856432736031823e-03
 -2.447806579183201253e-03
 -2.441762914128545962e-03
 -2.435726378713460368e-03
 -2.429697909582602140e-03
 -2.423678438302665720e-03
 -2.417668890788218349e-03
 -2.411670186734674905e-03
 -2.405683239059905592e-03
 -2.399708953354818229e-03
 -2.393748227343325818e-03
 -2.387801950353207747e-03
 -2.381871002797384534e-03
 -2.375956255667385081e-03
 -2.370058570038552793e-03
 -2.364178796588400043e-03
 -2.358317775128139157e-03
 -2.352476334148059962e-03
 -2.346655290377349778e-03
 -2.340855448358515438e-03
 -2.335077600037078257e-03
 -2.329322524367081430e-03
 -2.323590986932079407e-03
 -2.317883739582787123e-03
 -2.312201520091192609e-03
 -2.306545051821379342e-03
 -2.300915043417413926e-03
 -2.295312188508557595e-03
 -2.289737165431867012e-03
 -2.284190636972023049e-03
 -2.278673250119329051e-03
 -2.273185635844626133e-03
 -2.267728408892662022e-03
 -2.262302167592514408e-03
 -2.256907493686159932e-03
 -2.251544952174252059e-03
 -2.246215091179657331e-03
 -2.240918441828221308e-03
 -2.235655518146972831e-03
 -2.230426816979046677e-03
 -2.225232817915758724e-03
 -2.220073983245235156e-03
 -2.214950757917439131e-03
 -2.209863569525164287e-03
 -2.204812828301084843e-03
 -2.199798927130238672e-03
 -2.194822241577573402e-03
 -2.189883129930567714e-03
 -2.184981933256060875e-03
 -2.180118975471382042e-03
 -2.175294563429176070e-03
 -2.170508987015366820e-03
 -2.165762519260180756e-03
 -2.161055416461485790e-03
 -2.156387918320215938e-03
 -2.151760248087596864e-03
 -2.147172612722795387e-03
 -2.142625203062152161e-03
 -2.138118193997989164e-03
 -2.133651744667329399e-03
 -2.129225998649874815e-03
 -2.124841084174905036e-03
 -2.120497114336399123e-03
 -2.116194187315992205e-03
 -2.111932386613410949e-03
 -2.107711781283828825e-03
 -2.103532426181714023e-03
 -2.099394362210612285e-03
 -2.095297616578590573e-03
 -2.091242203058763047e-03
 -2.087228122254548499e-03
 -2.083255361868966218e-03
 -2.079323896978135106e-03
 -2.075433690307793358e-03
 -2.071584692512939800e-03
 -2.067776842460314519e-03
 -2.064010067512592108e-03
 -2.060284283814974027e-03
 -2.056599396582541213e-03
 -2.052955300389508377e-03
 -2.049351879458534680e-03
 -2.045789007950782508e-03
 -2.042266550255938083e-03
 -2.038784361282048197e-03
 -2.035342286744917187e-03
 -2.031940163456240171e-03
 -2.028577819611289586e-03
 -2.025255075074638457e-03
 -2.021971741664412622e-03
 -2.018727623434881518e-03
 -2.015522516956575697e-03
 -2.012356211594309649e-03
 -2.009228489782594312e-03
 -2.006139127298131770e-03
 -2.003087893529597718e-03
 -2.000074551744304447e-03
 -1.997098859351208785e-03
 -1.994160568161002650e-03
 -1.991259424642273599e-03
 -1.988395170174039363e-03
 -1.985567541294404412e-03
 -1.982776269945360666e-03
 -1.980021083713384526e-03
 -1.977301706066054033e-03
 -1.974617856584129708e-03
 -1.971969251189758729e-03
 -1.969355602369807570e-03
 -1.966776619395086377e-03
 -1.964232008534907807e-03
 -1.961721473267232733e-03
 -1.959244714484054562e-03
 -1.956801430692372591e-03
 -1.954391318210340223e-03
 -1.952014071358921556e-03
 -1.949669382648766634e-03
 -1.947356942962648199e-03
 -1.945076441732786860e-03
 -1.942827567114154518e-03
 -1.940610006152491658e-03
 -1.938423444948310717e-03
 -1.936267568815700901e-03
 -1.934142062437230322e-03
 -1.932046610013547685e-03
 -1.929980895409374010e-03
 -1.927944602294032151e-03
 -1.925937414278598150e-03
 -1.923959015047713118e-03
 -1.922009088487849991e-03
 -2.350549614181148602e-03
 -2.344812516411492933e-03
 -2.339076779344787319e-03
 -2.333343307481888784e-03
 -2.327613003885541272e-03
 -2.321886769607785055e-03
 -2.316165503120076654e-03
 -2.310450099746983593e-03
 -2.304741451104241542e-03
 -2.299040444541475270e-03
 -2.293347962591011074e-03
 -2.287664882422983225e-03
 -2.281992075307659462e-03
 -2.276330406085614808e-03
 -2.270680732646586375e-03
 -2.265043905417262870e-03
 -2.259420766859198369e-03
 -2.253812150977008676e-03
 -2.248218882837745795e-03
 -2.242641778101741104e-03
 -2.237081642565561228e-03
 -2.231539271717997326e-03
 -2.226015450308672320e-03
 -2.220510951930683777e-03
 -2.215026538617030898e-03
 -2.209562960451542501e-03
 -2.204120955194774790e-03
 -2.198701247924633034e-03
 -2.193304550692956600e-03
 -2.187931562197426797e-03
 -2.182582967469614589e-03
 -2.177259437579192464e-03
 -2.171961629354389814e-03
 -2.166690185119165852e-03
 -2.161445732446825967e-03
 -2.156228883930382933e-03
 -2.151040236969758816e-03
 -2.145880373575737802e-03
 -2.140749860190614001e-03
 -2.135649247525871208e-03
 -2.130579070416167321e-03
 -2.125539847690317754e-03
 -2.120532082058572670e-03
 -2.115556260016241818e-03
 -2.110612851763486123e-03
 -2.105702311141384453e-03
 -2.100825075583331435e-03
 -2.095981566082467593e-03
 -2.091172187173967380e-03
 -2.086397326932660883e-03
 -2.081657356985253202e-03
 -2.076952632536963744e-03
 -2.072283492412254919e-03
 -2.067650259109264296e-03
 -2.063053238867612344e-03
 -2.058492721749373682e-03
 -2.053968981732340587e-03
 -2.049482276815790382e-03
 -2.045032849137957010e-03
 -2.040620925104932697e-03
 -2.036246715530394720e-03
 -2.031910415786177676e-03
 -2.027612205962659939e-03
 -2.023352251038982533e-03
 -2.019130701062515822e-03
 -2.014947691337000673e-03
 -2.010803342619128190e-03
 -2.006697761323038027e-03
 -2.002631039732126386e-03
 -1.998603256218034908e-03
 -1.994614475466155185e-03
 -1.990664748707167940e-03
 -1.986754113954382686e-03
 -1.982882596246466310e-03
 -1.979050207894613844e-03
 -1.975256948734629807e-03
 -1.971502806382707980e-03
 -1.967787756494924351e-03
 -1.964111763029938000e-03
 -1.960474778514551247e-03
 -1.956876744311655033e-03
 -1.953317590890219987e-03
 -1.949797238097244903e-03
 -1.946315595430669508e-03
 -1.942872562313620148e-03
 -1.939468028369248321e-03
 -1.936101873695986620e-03
 -1.932773969142695608e-03
 -1.929484176583739575e-03
 -1.926232349193496762e-03
 -1.923018331720102855e-03
 -1.919841960757874989e-03
 -1.916703065018815922e-03
 -1.913601465602148000e-03
 -1.910536976262350480e-03
 -1.907509403674931313e-03
 -1.904518547700158023e-03
 -1.901564201644178253e-03
 -1.898646152517677885e-03
 -1.895764181291532003e-03
 -1.892918063149782006e-03
 -1.890107567739096432e-03
 -1.887332459415350626e-03
 -1.884592497486439235e-03
 -1.881887436451894430e-03
 -1.879217026238470681e-03
 -1.876581012432316240e-03
 -1.873979136507028997e-03
 -1.871411136047911993e-03
 -1.868876744972144087e-03
 -1.866375693744703372e-03
 -1.863907709590425631e-03
 -1.861472516701523664e-03
 -1.859069836441058646e-03
 -1.856699387541890789e-03
 -1.854360886301479683e-03
 -1.852054046772135757e-03
 -1.849778580947001498e-03
 -1.847534198941459295e-03
 -1.845320609170320860e-03
 -1.843137518520375192e-03
 -1.840984632518715943e-03
 -1.838861655496434053e-03
 -1.836768290748175660e-03
 -1.834704240686955545e-03
 -1.832669206995030369e-03
 -1.830662890770056285e-03
 -1.828684992667196831e-03
 -1.826735213036804898e-03
 -1.824813252058007278e-03
 -1.822918809867934845e-03
 -1.821051586686930988e-03
 -1.819211282939645936e-03
 -2.215921529417988218e-03
 -2.210516177738854927e-03
 -2.205112110581476225e-03
 -2.199710181675152039e-03
 -2.194311243389944922e-03
 -2.188916146195445458e-03
 -2.183525738122179660e-03
 -2.178140864226415976e-03
 -2.172762366058906235e-03
 -2.167391081138412244e-03
 -2.162027842430520701e-03
 -2.156673477832844917e-03
 -2.151328809666854490e-03
 -2.145994654177121354e-03
 -2.140671821038610603e-03
 -2.135361112873108546e-03
 -2.130063324774238934e-03
 -2.124779243842989888e-03
 -2.119509648733461805e-03
 -2.114255309209491993e-03
 -2.109016985712956153e-03
 -2.103795428943969203e-03
 -2.098591379453527972e-03
 -2.093405567249023366e-03
 -2.088238711413010606e-03
 -2.083091519735754023e-03
 -2.077964688361521282e-03
 -2.072858901449522572e-03
 -2.067774830849157790e-03
 -2.062713135790291644e-03
 -2.057674462588687629e-03
 -2.052659444366571398e-03
 -2.047668700788761540e-03
 -2.042702837814439759e-03
 -2.037762447464555680e-03
 -2.032848107605171161e-03
 -2.027960381746449648e-03
 -2.023099818857835696e-03
 -2.018266953198778919e-03
 -2.013462304165527985e-03
 -2.008686376153748319e-03
 -2.003939658436588393e-03
 -1.999222625058647354e-03
 -1.994535734745189141e-03
 -1.989879430826894946e-03
 -1.985254141179396397e-03
 -1.980660278178125473e-03
 -1.976098238667604260e-03
 -1.971568403945271695e-03
 -1.967071139759517251e-03
 -1.962606796321647064e-03
 -1.958175708331478908e-03
 -1.953778195016140154e-03
 -1.949414560181985008e-03
 -1.945085092279106925e-03
 -1.940790064478065862e-03
 -1.936529734758658848e-03
 -1.932304346010073814e-03
 -1.928114126142516441e-03
 -1.923959288209088148e-03
 -1.919840030538616255e-03
 -1.915756536878035748e-03
 -1.911708976544449932e-03
 -1.907697504586459069e-03
 -1.903722261953946435e-03
 -1.899783375676333732e-03
 -1.895880959048810597e-03
 -1.892015111825707911e-03
 -1.888185920421275995e-03
 -1.884393458116808860e-03
 -1.880637785274040562e-03
 -1.876918949554413820e-03
 -1.873236986143616981e-03
 -1.869591917981145617e-03
 -1.865983755994429045e-03
 -1.862412499337053615e-03
 -1.858878135630914709e-03
 -1.855380641211650840e-03
 -1.851919981377139323e-03
 -1.848496110638663198e-03
 -1.845108972974320938e-03
 -1.841758502084517388e-03
 -1.838444621648890409e-03
 -1.835167245584660642e-03
 -1.831926278305782063e-03
 -1.828721614982931282e-03
 -1.825553141803591380e-03
 -1.822420736232434335e-03
 -1.819324267271225969e-03
 -1.816263595718342313e-03
 -1.813238574427513371e-03
 -1.810249048565482468e-03
 -1.807294855868468849e-03
 -1.804375826897038895e-03
 -1.801491785289302885e-03
 -1.798642548012263859e-03
 -1.795827925610892677e-03
 -1.793047722454915206e-03
 -1.790301736983272371e-03
 -1.787589761945675409e-03
 -1.784911584641472740e-03
 -1.782266987155604237e-03
 -1.779655746591300063e-03
 -1.777077635299593051e-03
 -1.774532421105527941e-03
 -1.772019867530946931e-03
 -1.769539734013464037e-03
 -1.767091776122082115e-03
 -1.764675745768835196e-03
 -1.762291391416779011e-03
 -1.759938458283913159e-03
 -1.757616688543346076e-03
 -1.755325821519209935e-03
 -1.753065593878838950e-03
 -1.750835739820560564e-03
 -1.748635991257568119e-03
 -1.746466077997495736e-03
 -1.744325727917967568e-03
 -1.742214667137854250e-03
 -1.740132620184469238e-03
 -1.738079310156343329e-03
 -1.736054458882091943e-03
 -1.734057787074966836e-03
 -1.732089014483162307e-03
 -1.730147860036150391e-03
 -1.728234041986717205e-03
 -1.726347278049063412e-03
 -1.724487285532686496e-03
 -1.722653781472273599e-03
 -1.720846482753666954e-03
 -1.719065106235716277e-03
 -1.717309368868360966e-03
 -1.715578987806689248e-03
 -2.080281077351851284e-03
 -2.075209717611446996e-03
 -2.070139565393726549e-03
 -2.065071423111308063e-03
 -2.060006091897574696e-03
 -2.054944371097089210e-03
 -2.049887057758978826e-03
 -2.044834946133004122e-03
 -2.039788827169704537e-03
 -2.034749488024750579e-03
 -2.029717711568736985e-03
 -2.024694275902415123e-03
 -2.019679953878575872e-03
 -2.014675512630742602e-03
 -2.009681713109712480e-03
 -2.004699309628051908e-03
 -1.999729049413600818e-03
 -1.994771672172193124e-03
 -1.989827909660030463e-03
 -1.984898485266822950e-03
 -1.979984113609388995e-03
 -1.975085500136665711e-03
 -1.970203340746586994e-03
 -1.965338321414712621e-03
 -1.960491117835817896e-03
 -1.955662395078003237e-03
 -1.950852807250096944e-03
 -1.946062997182645840e-03
 -1.941293596122537803e-03
 -1.936545223441647583e-03
 -1.931818486359766556e-03
 -1.927113979681936099e-03
 -1.922432285550248121e-03
 -1.917773973210490064e-03
 -1.913139598793552618e-03
 -1.908529705111625509e-03
 -1.903944821469484095e-03
 -1.899385463490668117e-03
 -1.894852132958511426e-03
 -1.890345317672331455e-03
 -1.885865491318227663e-03
 -1.881413113354900085e-03
 -1.876988628913984700e-03
 -1.872592468715043304e-03
 -1.868225048994948774e-03
 -1.863886771451538429e-03
 -1.859578023201241244e-03
 -1.855299176750648113e-03
 -1.851050589981586289e-03
 -1.846832606149721202e-03
 -1.842645553896102555e-03
 -1.838489747271517677e-03
 -1.834365485773615254e-03
 -1.830273054395914305e-03
 -1.826212723688948629e-03
 -1.822184749832930035e-03
 -1.818189374721473038e-03
 -1.814226826056448885e-03
 -1.810297317453123025e-03
 -1.806401048555520946e-03
 -1.802538205161534693e-03
 -1.798708959357361121e-03
 -1.794913469661084306e-03
 -1.791151881174558608e-03
 -1.787424325743816817e-03
 -1.783730922127009380e-03
 -1.780071776169966447e-03
 -1.776446980988674726e-03
 -1.772856617158264769e-03
 -1.769300752908482431e-03
 -1.765779444324655067e-03
 -1.762292735554443464e-03
 -1.758840659019300081e-03
 -1.755423235630863875e-03
 -1.752040475011507623e-03
 -1.748692375718834124e-03
 -1.745378925473663970e-03
 -1.742100101391362219e-03
 -1.738855870215832424e-03
 -1.735646188556129021e-03
 -1.732471003125089348e-03
 -1.729330250979927222e-03
 -1.726223859764287145e-03
 -1.723151747951360158e-03
 -1.720113825088086723e-03
 -1.717109992039774847e-03
 -1.714140141235133462e-03
 -1.711204156911275663e-03
 -1.708301915358462165e-03
 -1.705433285164447517e-03
 -1.702598127457923168e-03
 -1.699796296151167988e-03
 -1.697027638181346568e-03
 -1.694291993750375071e-03
 -1.691589196563383912e-03
 -1.688919074064960859e-03
 -1.686281447673801870e-03
 -1.683676133014834660e-03
 -1.681102940149183621e-03
 -1.678561673801523980e-03
 -1.676052133584823465e-03
 -1.673574114222220596e-03
 -1.671127405766004680e-03
 -1.668711793813553975e-03
 -1.666327059720048784e-03
 -1.663972980807986802e-03
 -1.661649330573246579e-03
 -1.659355878887765244e-03
 -1.657092392198631411e-03
 -1.654858633723609983e-03
 -1.652654363642984143e-03
 -1.650479339287640136e-03
 -1.648333315323381428e-03
 -1.646216043931511682e-03
 -1.644127274985459101e-03
 -1.642066756223486577e-03
 -1.640034233417654629e-03
 -1.638029450538699278e-03
 -1.636052149916999423e-03
 -1.634102072399684245e-03
 -1.632178957503733607e-03
 -1.630282543565040460e-03
 -1.628412567883760938e-03
 -1.626568766865491358e-03
 -1.624750876158727710e-03
 -1.622958630788314894e-03
 -1.621191765285093884e-03
 -1.619450013811746594e-03
 -1.617733110284688171e-03
 -1.616040788492363860e-03
 -1.614372782209725580e-03
 -1.612728825309008756e-03
 -1.611108651866869712e-03
 -1.943628241624302359e-03
 -1.938893083837386596e-03
 -1.934159055762326145e-03
 -1.929426907954063641e-03
 -1.924697389769209699e-03
 -1.919971248888991582e-03
 -1.915249230844568882e-03
 -1.910532078545106342e-03
 -1.905820531809634651e-03
 -1.901115326902795511e-03
 -1.896417196075673777e-03
 -1.891726867111883422e-03
 -1.887045062879652395e-03
 -1.882372500890513306e-03
 -1.877709892865229427e-03
 -1.873057944307196260e-03
 -1.868417354084300546e-03
 -1.863788814019350960e-03
 -1.859173008489842065e-03
 -1.854570614037316266e-03
 -1.849982298987038485e-03
 -1.845408723078008698e-03
 -1.840850537104212446e-03
 -1.836308382567076363e-03
 -1.831782891339683167e-03
 -1.827274685343114767e-03
 -1.822784376235026026e-03
 -1.818312565110992603e-03
 -1.813859842218651722e-03
 -1.809426786685079539e-03
 -1.805013966257382326e-03
 -1.800621937056919985e-03
 -1.796251243347047602e-03
 -1.791902417314814380e-03
 -1.787575978866350404e-03
 -1.783272435436356268e-03
 -1.778992281811488498e-03
 -1.774735999967864963e-03
 -1.770504058922468035e-03
 -1.766296914598687031e-03
 -1.762115009705604455e-03
 -1.757958773631298566e-03
 -1.753828622349864162e-03
 -1.749724958342111425e-03
 -1.745648170529593085e-03
 -1.741598634222329186e-03
 -1.737576711079325854e-03
 -1.733582749082284921e-03
 -1.729617082522047489e-03
 -1.725680031997465060e-03
 -1.721771904426607587e-03
 -1.717892993070062541e-03
 -1.714043577565738889e-03
 -1.710223923975382615e-03
 -1.706434284842057005e-03
 -1.702674899258536717e-03
 -1.698945992946118439e-03
 -1.695247778343764644e-03
 -1.691580454706849033e-03
 -1.687944208215684094e-03
 -1.684339212092850853e-03
 -1.680765626729628561e-03
 -1.677223599820575409e-03
 -1.673713266506284122e-03
 -1.670234749523836267e-03
 -1.666788159364430500e-03
 -1.663373594438094993e-03
 -1.659991141244831353e-03
 -1.656640874552029559e-03
 -1.653322857577657146e-03
 -1.650037142178948550e-03
 -1.646783769046081128e-03