<VTKFile type="UnstructuredGrid" byte_order="BigEndian">
<UnstructuredGrid><Piece NumberOfPoints="660" NumberOfCells="608">
<Points>
 <DataArray type="Float32" NumberOfComponents="3" format="ascii">
 -2.073791576549410820e-03 1.206354610621929169e-02 0.000000000000000000e+00
 -2.069013193249702454e-03 1.202891115099191666e-02 0.000000000000000000e+00
 -2.063619205728173256e-03 1.198981422930955887e-02 0.000000000000000000e+00
 -2.057555597275495529e-03 1.194586418569087982e-02 0.000000000000000000e+00
 -2.050770679488778114e-03 1.189668662846088409e-02 0.000000000000000000e+00
 -2.043218119069933891e-03 1.184194441884756088e-02 0.000000000000000000e+00
 -2.034859498962759972e-03 1.178135909140110016e-02 0.000000000000000000e+00
 -2.025667577981948853e-03 1.171473413705825806e-02 0.000000000000000000e+00
 -2.015630016103386879e-03 1.164198108017444611e-02 0.000000000000000000e+00
 -2.004753099754452705e-03 1.156314276158809662e-02 0.000000000000000000e+00
 -1.993064070120453835e-03 1.147841848433017731e-02 0.000000000000000000e+00
 -1.980613684281706810e-03 1.138817612081766129e-02 0.000000000000000000e+00
 -1.967478310689330101e-03 1.129296794533729553e-02 0.000000000000000000e+00
 -1.953758066520094872e-03 1.119352132081985474e-02 0.000000000000000000e+00
 -1.939576584845781326e-03 1.109073124825954437e-02 0.000000000000000000e+00
 -1.925075892359018326e-03 1.098562777042388916e-02 0.000000000000000000e+00
 -1.910411985591053963e-03 1.087934151291847229e-02 0.000000000000000000e+00
 -1.895748195238411427e-03 1.077305525541305542e-02 0.000000000000000000e+00
 -1.881247502751648426e-03 1.066795177757740021e-02 0.000000000000000000e+00
 -1.867066021077334881e-03 1.056516170501708984e-02 0.000000000000000000e+00
 -1.853345776908099651e-03 1.046571508049964905e-02 0.000000000000000000e+00
 -1.840210286900401115e-03 1.037050690501928329e-02 0.000000000000000000e+00
 -1.827760017476975918e-03 1.028026547282934189e-02 0.000000000000000000e+00
 -1.816070871427655220e-03 1.019554026424884796e-02 0.000000000000000000e+00
 -1.805193955078721046e-03 1.011670194566249847e-02 0.000000000000000000e+00
 -1.795156509615480900e-03 1.004394888877868652e-02 0.000000000000000000e+00
 -1.785964588634669781e-03 9.977323934435844421e-03 0.000000000000000000e+00
 -1.777605852112174034e-03 9.916738606989383698e-03 0.000000000000000000e+00
 -1.770053291693329811e-03 9.861996397376060486e-03 0.000000000000000000e+00
 -1.763268490321934223e-03 9.812818840146064758e-03 0.000000000000000000e+00
 -1.757204881869256496e-03 9.768868796527385712e-03 0.000000000000000000e+00
 -1.751811010763049126e-03 9.729772806167602539e-03 0.000000000000000000e+00
 -1.747032511048018932e-03 9.695137850940227509e-03 0.000000000000000000e+00
 -1.972295809537172318e-03 1.210595201700925827e-02 0.000000000000000000e+00
 -1.967697869986295700e-03 1.207113359123468399e-02 0.000000000000000000e+00
 -1.962507376447319984e-03 1.203182991594076157e-02 0.000000000000000000e+00
 -1.956672640517354012e-03 1.198764704167842865e-02 0.000000000000000000e+00
 -1.950143836438655853e-03 1.193820871412754059e-02 0.000000000000000000e+00
 -1.942876260727643967e-03 1.188317686319351196e-02 0.000000000000000000e+00
 -1.934833009727299213e-03 1.182227022945880890e-02 0.000000000000000000e+00
 -1.925988006405532360e-03 1.175529230386018753e-02 0.000000000000000000e+00
 -1.916329376399517059e-03 1.168215367943048477e-02 0.000000000000000000e+00
 -1.905862824060022831e-03 1.160289812833070755e-02 0.000000000000000000e+00
 -1.894614892080426216e-03 1.151772495359182358e-02 0.000000000000000000e+00
 -1.882634474895894527e-03 1.142700482159852982e-02 0.000000000000000000e+00
 -1.869994564913213253e-03 1.133129186928272247e-02 0.000000000000000000e+00
 -1.856792252510786057e-03 1.123131904751062393e-02 0.000000000000000000e+00
 -1.843145815655589104e-03 1.112798415124416351e-02 0.000000000000000000e+00
 -1.829192391596734524e-03 1.102232374250888824e-02 0.000000000000000000e+00
 -1.815081923268735409e-03 1.091547496616840363e-02 0.000000000000000000e+00
 -1.800971454940736294e-03 1.080862618982791901e-02 0.000000000000000000e+00
 -1.787018030881881714e-03 1.070296578109264374e-02 0.000000000000000000e+00
 -1.773371710442006588e-03 1.059963088482618332e-02 0.000000000000000000e+00
 -1.760169281624257565e-03 1.049965806305408478e-02 0.000000000000000000e+00
 -1.747529488056898117e-03 1.040394511073827744e-02 0.000000000000000000e+00
 -1.735549070872366428e-03 1.031322497874498367e-02 0.000000000000000000e+00
 -1.724301022477447987e-03 1.022805180400609970e-02 0.000000000000000000e+00
 -1.713834586553275585e-03 1.014879625290632248e-02 0.000000000000000000e+00
 -1.704175956547260284e-03 1.007565762847661972e-02 0.000000000000000000e+00
 -1.695330836810171604e-03 1.000867970287799835e-02 0.000000000000000000e+00
 -1.687287585809826851e-03 9.947773069143295288e-03 0.000000000000000000e+00
 -1.680020010098814964e-03 9.892741218209266663e-03 0.000000000000000000e+00
 -1.673491206020116806e-03 9.843302890658378601e-03 0.000000000000000000e+00
 -1.667656470090150833e-03 9.799120016396045685e-03 0.000000000000000000e+00
 -1.662466092966496944e-03 9.759816341102123260e-03 0.000000000000000000e+00
 -1.657867920584976673e-03 9.724997915327548981e-03 0.000000000000000000e+00
 -1.869971165433526039e-03 1.214643288403749466e-02 0.000000000000000000e+00
 -1.865560305304825306e-03 1.211143843829631805e-02 0.000000000000000000e+00
 -1.860581221990287304e-03 1.207193732261657715e-02 0.000000000000000000e+00
 -1.854983973316848278e-03 1.202753093093633652e-02 0.000000000000000000e+00
 -1.848721061833202839e-03 1.197784300893545151e-02 0.000000000000000000e+00
 -1.841749413870275021e-03 1.192253362387418747e-02 0.000000000000000000e+00
 -1.834033639170229435e-03 1.186131965368986130e-02 0.000000000000000000e+00
 -1.825548708438873291e-03 1.179400365799665451e-02 0.000000000000000000e+00
 -1.816283329389989376e-03 1.172049622982740402e-02 0.000000000000000000e+00
 -1.806242973543703556e-03 1.164084021002054214e-02 0.000000000000000000e+00
 -1.795452903024852276e-03 1.155523676425218582e-02 0.000000000000000000e+00
 -1.783960266038775444e-03 1.146405935287475586e-02 0.000000000000000000e+00
 -1.771835144609212875e-03 1.136786397546529770e-02 0.000000000000000000e+00
 -1.759170205332338810e-03 1.126738637685775757e-02 0.000000000000000000e+00
 -1.746079535223543644e-03 1.116352993994951248e-02 0.000000000000000000e+00
 -1.732694217935204506e-03 1.105733681470155716e-02 0.000000000000000000e+00
 -1.719158259220421314e-03 1.094994787126779556e-02 0.000000000000000000e+00
 -1.705622300505638123e-03 1.084255985915660858e-02 0.000000000000000000e+00
 -1.692236983217298985e-03 1.073636673390865326e-02 0.000000000000000000e+00
 -1.679146196693181992e-03 1.063251029700040817e-02 0.000000000000000000e+00
 -1.666481373831629753e-03 1.053203269839286804e-02 0.000000000000000000e+00
 -1.654356135986745358e-03 1.043583638966083527e-02 0.000000000000000000e+00
 -1.642863499000668526e-03 1.034465897828340530e-02 0.000000000000000000e+00
 -1.632073544897139072e-03 1.025905553251504898e-02 0.000000000000000000e+00
 -1.622033189050853252e-03 1.017939951270818710e-02 0.000000000000000000e+00
 -1.612767810001969337e-03 1.010589208453893661e-02 0.000000000000000000e+00
 -1.604282879270613194e-03 1.003857702016830444e-02 0.000000000000000000e+00
 -1.596567104570567608e-03 9.977363049983978271e-03 0.000000000000000000e+00
 -1.589595456607639790e-03 9.922052733600139618e-03 0.000000000000000000e+00
 -1.583332428708672523e-03 9.872364811599254608e-03 0.000000000000000000e+00
 -1.577735180035233498e-03 9.827959351241588593e-03 0.000000000000000000e+00
 -1.572756213136017323e-03 9.788457304239273071e-03 0.000000000000000000e+00
 -1.568345236591994762e-03 9.753463789820671082e-03 0.000000000000000000e+00
 -1.766813918948173523e-03 1.218494959175586700e-02 0.000000000000000000e+00
 -1.762597239576280117e-03 1.214978750795125961e-02 0.000000000000000000e+00
 -1.757837482728064060e-03 1.211009640246629715e-02 0.000000000000000000e+00
 -1.752486801706254482e-03 1.206547766923904419e-02 0.000000000000000000e+00
 -1.746499678120017052e-03 1.201555132865905762e-02 0.000000000000000000e+00
 -1.739835133776068687e-03 1.195997651666402817e-02 0.000000000000000000e+00
 -1.732459175400435925e-03 1.189846917986869812e-02 0.000000000000000000e+00
 -1.724347937852144241e-03 1.183083094656467438e-02 0.000000000000000000e+00
 -1.715490594506263733e-03 1.175697147846221924e-02 0.000000000000000000e+00
 -1.705892500467598438e-03 1.167693361639976501e-02 0.000000000000000000e+00
 -1.695577637292444706e-03 1.159091945737600327e-02 0.000000000000000000e+00
 -1.684591174125671387e-03 1.149930525571107864e-02 0.000000000000000000e+00
 -1.673000049777328968e-03 1.140264794230461121e-02 0.000000000000000000e+00
 -1.660893089137971401e-03 1.130168884992599487e-02 0.000000000000000000e+00
 -1.648378791287541389e-03 1.119733508676290512e-02 0.000000000000000000e+00
 -1.635583001188933849e-03 1.109063252806663513e-02 0.000000000000000000e+00
 -1.622643321752548218e-03 1.098272949457168579e-02 0.000000000000000000e+00
 -1.609703525900840759e-03 1.087482646107673645e-02 0.000000000000000000e+00
 -1.596907735802233219e-03 1.076812390238046646e-02 0.000000000000000000e+00
 -1.584393554367125034e-03 1.066377013921737671e-02 0.000000000000000000e+00
 -1.572286477312445641e-03 1.056281104683876038e-02 0.000000000000000000e+00
 -1.560695352964103222e-03 1.046615373343229294e-02 0.000000000000000000e+00
 -1.549708889797329903e-03 1.037453953176736832e-02 0.000000000000000000e+00
 -1.539394143037497997e-03 1.028852537274360657e-02 0.000000000000000000e+00
 -1.529795932583510876e-03 1.020848844200372696e-02 0.000000000000000000e+00
 -1.520938705652952194e-03 1.013462804257869720e-02 0.000000000000000000e+00
 -1.512827468104660511e-03 1.006698980927467346e-02 0.000000000000000000e+00
 -1.505451509729027748e-03 1.000548247247934341e-02 0.000000000000000000e+00
[...]
<CellData>
 <DataArray Name="pos.x" type="Float32" NumberOfComponents="1" format="ascii">
 -2.020675417152903788e-03
 -2.015685400547628618e-03
 -2.010064978485113889e-03
 -2.003762277026961778e-03
 -1.996729203943166213e-03
 -1.988924113345614999e-03
 -1.980314862171391518e-03
 -1.970882136345265996e-03
 -1.960622849143601326e-03
 -1.949553337671472951e-03
 -1.937712019437130796e-03
 -1.925161137334206610e-03
 -1.911987235789517009e-03
 -1.898300086465875376e-03
 -1.884229921218876641e-03
 -1.869923020486995244e-03
 -1.855535918735454204e-03
 -1.841228685592462668e-03
 -1.827157880785922322e-03
 -1.813469831665116393e-03
 -1.800294832220279695e-03
 -1.787742723594233727e-03
 -1.775900119216880469e-03
 -1.764829324011573308e-03
 -1.754568806142785741e-03
 -1.745134939901129330e-03
 -1.736524662219689165e-03
 -1.728718670588529549e-03
 -1.721684823721606784e-03
 -1.715381470324451240e-03
 -1.709760508065343758e-03
 -1.704770050327515793e-03
 -1.918858405929227580e-03
 -1.914063991550068967e-03
 -1.908663883237449220e-03
 -1.902608240543271576e-03
 -1.895850856476515934e-03
 -1.888351717669513145e-03
 -1.880079941029362284e-03
 -1.871016969494793342e-03
 -1.861159837164670953e-03
 -1.850524240458715965e-03
 -1.839147090550446225e-03
 -1.827088189958849798e-03
 -1.814430690064088242e-03
 -1.801280058976760697e-03
 -1.787761423032237619e-03
 -1.774015328190854798e-03
 -1.760192172694475306e-03
 -1.746445751624129804e-03
 -1.732926488010757540e-03
 -1.719774973847056250e-03
 -1.707116396441020912e-03
 -1.695056292086337662e-03
 -1.683677879881515481e-03
 -1.673041023223653580e-03
 -1.663182683005705190e-03
 -1.654118592148465239e-03
 -1.645845807975232673e-03
 -1.638345784781874287e-03
 -1.631587641224789727e-03
 -1.625531358633961875e-03
 -1.620130720106191481e-03
 -1.615335872750780144e-03
 -1.816214058636495855e-03
 -1.811622667802452805e-03
 -1.806451232098086560e-03
 -1.800652021709811274e-03
 -1.794180786406500503e-03
 -1.786999207276118197e-03
 -1.779077709000703202e-03
 -1.770398520261987638e-03
 -1.760958800581290248e-03
 -1.750773581410795116e-03
 -1.739878210474141845e-03
 -1.728329957371550329e-03
 -1.716208451753702471e-03
 -1.703614694952147908e-03
 -1.690668514123139666e-03
 -1.677504503215221463e-03
 -1.664266691452977523e-03
 -1.651102361307031164e-03
 -1.638155566255919621e-03
 -1.625560945287493749e-03
 -1.613438385217001985e-03
 -1.601888954092774934e-03
 -1.590992347830830602e-03
 -1.580805895607005022e-03
 -1.571364993804265234e-03
 -1.562684709601198279e-03
 -1.554762225254047734e-03
 -1.547579780565722833e-03
 -1.541107801936037651e-03
 -1.535307965268127442e-03
 -1.530136010633005193e-03
 -1.525544196041369108e-03
 -1.712738960138725794e-03
 -1.708358198456272781e-03
 -1.703424001783478354e-03
 -1.697890830000428055e-03
 -1.691716462931958619e-03
 -1.684864339594375950e-03
 -1.677306241436621716e-03
 -1.669025212326383668e-03
 -1.660018541923095675e-03
 -1.650300571828539759e-03
 -1.639905027786463113e-03
 -1.628886551640549825e-03
 -1.617321119438724876e-03
 -1.605305098458839185e-03
 -1.592952818215155912e-03
 -1.580392697712939415e-03
 -1.567762158587392455e-03
 -1.555201726724121398e-03
 -1.542848847409575980e-03
 -1.530831983570022595e-03
 -1.519265522899117130e-03
 -1.508245897739670001e-03
 -1.497849148767801128e-03
 -1.488129975934805336e-03
 -1.479122152448704517e-03
 -1.470840054764034621e-03
 -1.463280994722800403e-03
 -1.456428027047400623e-03
 -1.450252934868547991e-03
 -1.444719152150020138e-03
 -1.439784449260256977e-03
 -1.435403274204549934e-03
 -1.608429635290209306e-03
 -1.604267294782657201e-03
 -1.599579113527774916e-03
 -1.594321822095407697e-03
 -1.588455305458164090e-03
 -1.581944825588592340e-03
 -1.574763570895274922e-03
 -1.566895430597034814e-03
 -1.558337829323988089e-03
 -1.549104393337349386e-03
 -1.539227166439827198e-03
 -1.528758065560925899e-03
 -1.517769278045675869e-03
 -1.506352365749300502e-03
 -1.494615957222156927e-03
 -1.482682068134888280e-03
 -1.470681268116348726e-03
 -1.458747076513022736e-03
 -1.447010085928652958e-03
 -1.435592354699739273e-03
 -1.424602567895266693e-03
 -1.414132350580998712e-03
 -1.404253952891831685e-03
 -1.395019348216129922e-03
 -1.386460626478306681e-03
 -1.378591447810385536e-03
 -1.371409258403933750e-03
 -1.364897958032591308e-03
 -1.359030736745758805e-03
 -1.353772851611664916e-03
 -1.349084178417741262e-03
 -1.344921436196980452e-03
 -1.503282548927610280e-03
 -1.499346610164336733e-03
 -1.494913433074683377e-03
 -1.489942101873267376e-03
 -1.484394683588458183e-03
 -1.478238329749931345e-03
 -1.471447687132995544e-03
 -1.464007521203303415e-03
 -1.455915396512662448e-03
 -1.447184197877216146e-03
 -1.437844225750418547e-03
 -1.427944572643825372e-03
 -1.417553498836030424e-03
 -1.406757585250001689e-03
 -1.395659551236172208e-03
 -1.384374775217451494e-03
 -1.373026724487907448e-03
 -1.361741655853261537e-03
 -1.350643058825875056e-03
 -1.339846353090365545e-03
 -1.329454312657694318e-03
 -1.319553579586222334e-03
 -1.310212474886930829e-03
 -1.301480145684432875e-03
 -1.293386937050358633e-03
 -1.285945766571698406e-03
 -1.279154219665498910e-03
 -1.272997072015680416e-03
 -1.267448971991860709e-03
 -1.262477066385007214e-03
 -1.258043413341732942e-03
 -1.254107085918176835e-03
 -1.397294105862165485e-03
 -1.393592740087728436e-03
 -1.389423770669396662e-03
 -1.384748720402483209e-03
 -1.379531917115830791e-03
 -1.373742470087728137e-03
 -1.367356537095403436e-03
 -1.360359791485730042e-03
 -1.352749942803031704e-03
 -1.344539107692834098e-03
 -1.335755780387856218e-03
 -1.326446127105586261e-03
 -1.316674339394778440e-03
 -1.306521837549578461e-03
 -1.296085218515200064e-03
 -1.285472983969906816e-03
 -1.274801242566738716e-03
 -1.264188726453130147e-03
 -1.253751565656676227e-03
 -1.243598301551275109e-03
 -1.233825583670123110e-03
 -1.224514891127743976e-03
 -1.215730473909458487e-03
 -1.207518550785738505e-03
 -1.199907658928857498e-03
 -1.192909946526655475e-03
 -1.186523143210696648e-03
 -1.180732932169562552e-03
 -1.175515472722217731e-03
 -1.170839869592486468e-03
 -1.166670442065882241e-03
 -1.162968702201588010e-03
 -1.290460650871733464e-03
 -1.287002222134954726e-03
 -1.283106881050447446e-03
 -1.278738675933314061e-03
 -1.273864276014560369e-03
 -1.268454818120907631e-03
 -1.262488024908492998e-03
 -1.255950509986796318e-03
 -1.248840133084660022e-03
 -1.241168215323676599e-03
 -1.232961380364819585e-03
 -1.224262763856949097e-03
 -1.215132343619238810e-03
 -1.205646195387074680e-03
 -1.195894575470977808e-03
 -1.185978863661838302e-03
 -1.176007547621131565e-03
 -1.166091566536583881e-03
 -1.156339428505961985e-03
 -1.146852551274265674e-03
 -1.137721241434789653e-03
 -1.129021630968137131e-03
 -1.120813753575694918e-03
 -1.113140795166627731e-03
 -1.106029420472802970e-03
 -1.099490980789923512e-03
 -1.093523355067100829e-03
 -1.088113166335383328e-03
 -1.083238138733205519e-03
 -1.078869404737347899e-03
 -1.074973625411779340e-03
 -1.071514838805437408e-03
 -1.182778468692976788e-03
 -1.179571535975881868e-03
 -1.175959463441747510e-03
 -1.171908913889573760e-03
 -1.167388980431794884e-03
 -1.162372898869412120e-03
 -1.156840011869877168e-03
 -1.150777906441909125e-03
 -1.144184597813474851e-03
 -1.137070583594187957e-03
 -1.129460551026826480e-03
 -1.121394498492347827e-03
 -1.112928041707801716e-03
 -1.104131723640299758e-03
 -1.095089236656838052e-03
 -1.085894587810577131e-03
 -1.076648375310157012e-03
 -1.067453470830130634e-03
 -1.058410491974925071e-03
 -1.049613481820316089e-03
 -1.041146180459247977e-03
 -1.033079184247234989e-03
 -1.025468161949245980e-03
 -1.018353159661986159e-03
 -1.011758903624462771e-03
 -1.005695920100793759e-03
 -1.000162242575675011e-03
 -9.951454670118434903e-04
 -9.906249374920877114e-04
 -9.865738856936895340e-04
 -9.829613969793190697e-04
 -9.797541244032678502e-04
 -1.074243784013636030e-03
 -1.071297103360356866e-03
 -1.067978161544639887e-03
 -1.064256326860674347e-03
 -1.060103200679461937e-03
 -1.055494190845897816e-03
 -1.050410316440230458e-03
 -1.044840171770541589e-03
 -1.038781933002478350e-03
 -1.032245245604256545e-03
 -1.025252793042284987e-03
 -1.017841327279503860e-03
 -1.010061950149067529e-03
 -1.001979479314390759e-03
 -9.936708147558362490e-04
 -9.852223341688863632e-04
 -9.767264716709592610e-04
 -9.682777505498446321e-04
 -9.599686231678218780e-04
 -9.518855011064150141e-04
 -9.441053292432906047e-04
 -9.366929754691942804e-04
 -9.296995915283967713e-04
 -9.231619742827093392e-04
 -9.171028438973912464e-04
 -9.115318728115871490e-04
 -9.064472543796032143e-04
 -9.018375913444897111e-04
 -8.976839041264837813e-04
 -8.939615966963616748e-04
 -8.906422631367591014e-04
 -8.876952625742681865e-04
 -9.648527614650729460e-04
 -9.621752881106529660e-04
 -9.591595635302989321e-04
 -9.557777545938308823e-04
 -9.520040572263521305e-04
 -9.478161260476149251e-04
 -9.431967142349715000e-04
 -9.381354580676532417e-04
 -9.326307002129883336e-04
 -9.266912047200078677e-04
 -9.203375823928630151e-04
 -9.136032271493585953e-04
 -9.065345717112961070e-04
 -8.991905115307792301e-04
 -8.916409205691985286e-04
 -8.839642847129538378e-04
 -8.762445931063646753e-04
 -8.685677333886620763e-04
 -8.610177116791276845e-04
 -8.536730453925719681e-04
 -8.466036502659753148e-04
 -8.398684684896529041e-04
 -8.335139792334775354e-04
 -8.275736182033713740e-04
 -8.220680303644366770e-04
 -8.170060048761013712e-04
 -8.123859004130780772e-04
 -8.081973611147501638e-04
 -8.044231414138506469e-04
 -8.010408923306269659e-04
 -7.980248030107382415e-04
 -7.953470317934748218e-04
 -8.546015056150876388e-04
 -8.522023961142154679e-04
 -8.495002020323692360e-04
 -8.464699839866464794e-04
 -8.430886206905295480e-04
 -8.393360899487167575e-04
 -8.351969380163711378e-04
 -8.306618785956245386e-04
 -8.257294265461556908e-04
 -8.204074345650534238e-04
 -8.147143703644020357e-04
 -8.086801556865280032e-04
 -8.023463954323732661e-04
 -7.957658615167019804e-04
 -7.890011630053486973e-04
 -7.821226256309342156e-04
 -7.752055063729761586e-04
 -7.683267635041298761e-04
 -7.615616695809879948e-04
 -7.549805792691163288e-04
 -7.486461399729083194e-04
 -7.426111665031403858e-04
 -7.369173063944338235e-04
 -7.315945197500312242e-04
 -7.266613056458901898e-04
 -7.221255398379816106e-04
 -7.179857518900280809e-04
 -7.142326627290813317e-04
 -7.108508197708471917e-04
 -7.078201975218737039e-04
 -7.051176684761691722e-04
 -7.027182854218648163e-04
 -7.434860609611447860e-04
 -7.413746753168491471e-04
 -7.389965541401008952e-04
 -7.363297490801440272e-04
 -7.333539118323075326e-04
 -7.300514214930816552e-04
 -7.264086776862008861e-04
 -7.224175077766264563e-04
 -7.180766046352124498e-04
 -7.133928790124161078e-04
 -7.083825835384227913e-04
 -7.030720511204478339e-04
 -6.974978966105290336e-04
 -6.917065625953921961e-04
 -6.857531490695922740e-04
 -6.796995473121472892e-04
 -6.736119885699295420e-04
 -6.675582015067714004e-04
 -6.616044314112911207e-04
 -6.558125956445774729e-04
 -6.502378287640333274e-04
 -6.449266120308122996e-04
 -6.399155987386960075e-04
 -6.352311563882895697e-04
 -6.308895658977609804e-04
 -6.268977588193724209e-04
 -6.232544412930298480e-04
 -6.199514472081168797e-04
 -6.169751772427961448e-04
 -6.143080075252858830e-04
 -6.119295841461426869e-04
 -6.098179516964839005e-04
 -6.315024119241337318e-04
 -6.296883157164522146e-04
 -6.276450413920238404e-04
 -6.253537310523804571e-04
 -6.227969015477603874e-04
 -6.199594130877144303e-04
 -6.168295802790318017e-04
 -6.134003811858054159e-04
 -6.096706926383829370e-04
 -6.056464521771730324e-04
 -6.013416237845300256e-04
 -5.967788323173723155e-04
 -5.919895367958943151e-04
 -5.870136401771948367e-04
 -5.818984838547385744e-04
 -5.766972443371921192e-04
 -5.714668271285249261e-04
 -5.662654244492657061e-04
 -5.611499541624774805e-04
 -5.561736157342437323e-04
 -5.513837809819903575e-04
 -5.468203869087966129e-04
 -5.425149263795651976e-04
 -5.384900547118019049e-04
 -5.347597608004691673e-04
 -5.313300005097708247e-04
 -5.281996623624409665e-04
 -5.253617301760715296e-04
 -5.228045194933195411e-04
 -5.205128879157120856e-04
 -5.184693473619939041e-04
 -5.166550337206251209e-04
 -5.186464828428283226e-04
 -5.171394493573898497e-04
 -5.154420297703068412e-04
 -5.135385582127776662e-04
 -5.114145108630029080e-04
 -5.090573105969674588e-04
 -5.064572499563557229e-04
 -5.036084955452739846e-04
 -5.005101142327205224e-04
 -4.971670384101231372e-04
 -4.935908682537628548e-04
 -4.898003987734265855e-04
 -4.858217637831882215e-04
 -4.816881117518059157e-04
 -4.774387705328491738e-04
 -4.731179154691996912e-04
 -4.687728198029570770e-04
 -4.644518258167219739e-04
 -4.602022172714026883e-04
 -4.560681890496461207e-04
 -4.520890949014001888e-04
 -4.482981122773194637e-04
 -4.447214038052677877e-04
 -4.413777904313681034e-04
 -4.382788935480612879e-04
 -4.354296611554245517e-04
 -4.328291700859646530e-04
 -4.304715918504917714e-04
 -4.283472197942775968e-04
 -4.264434745777981035e-04
 -4.247458281835854855e-04
 -4.232386094543152911e-04
 -4.049141379690506058e-04
 -4.037241503257377510e-04
 -4.023838296959659838e-04
 -4.008808059973037268e-04
 -3.992036109293647071e-04
 -3.973423133377033500e-04
 -3.952892480016932403e-04
 -3.930398087191505955e-04
 -3.905932586090747529e-04
 -3.879534922925703330e-04
 -3.851296693732123542e-04
 -3.821366306089530652e-04
 -3.789950116057182574e-04
 -3.757309868818655167e-04
 -3.723756103483847734e-04
 -3.689637636464581185e-04
 -3.655327746624352286e-04
 -3.621208155182610577e-04
 -3.587652226104434640e-04
 -3.555008933892757740e-04
 -3.523589027192223339e-04
 -3.493654485708261271e-04
 -3.465411898689506006e-04
 -3.439009883648876651e-04
 -3.414540208381628881e-04
 -3.392041945493608473e-04
 -3.371507806888036246e-04
 -3.352891770325474837e-04
 -3.336117190162242604e-04
 -3.321084736965519940e-04
 -3.307679693800314727e-04
 -3.295778317051033940e-04
 -2.903011814638811099e-04
 -2.894384347454283940e-04
 -2.884666960250615599e-04
 -2.873769969647011098e-04
 -2.861610230196424531e-04
 -2.848115740755457754e-04
 -2.833230928168832324e-04
 -2.816922397098488122e-04
 -2.799184804683239663e-04
 -2.780046386325224516e-04
 -2.759573548420778816e-04
 -2.737873885643676928e-04
 -2.715097005309742313e-04
 -2.691432671982065482e-04
 -2.667106026130063967e-04
 -2.642369959767279530e-04
 -2.617495100849497871e-04
 -2.592758198802433411e-04
 -2.568429944801679386e-04
 -2.544763348307626247e-04
 -2.521983705465121210e-04
 -2.500280955094047594e-04
 -2.479804877798673000e-04
 -2.460663224283632768e-04
 -2.442922528629311264e-04
 -2.426611120223181521e-04
 -2.411723716246133261e-04
 -2.398226950980658525e-04
 -2.386065256194989470e-04
 -2.375166617485568652e-04
 -2.365447864209664240e-04
 -2.356819281194350751e-04
 -1.748033573949042934e-04
 -1.742782607755768466e-04
 -1.736868280460468949e-04
 -1.730236007939065543e-04
 -1.722835185255879628e-04
 -1.714621990224638934e-04
 -1.705562599197281404e-04
 -1.695636686557950288e-04
 -1.684841000191628416e-04
 -1.673192724624591446e-04
 -1.660732276294108519e-04
 -1.647525139978018921e-04
 -1.633662370580664218e-04
 -1.619259463970000395e-04
 -1.604453447023461204e-04
 -1.589398237335371141e-04
 -1.574258547530181930e-04
 -1.559202816414202665e-04
 -1.544395796039091688e-04
 -1.529991477248563174e-04
 -1.516126984018944743e-04
 -1.502917920918024012e-04
 -1.490455450960090410e-04
 -1.478805156282839400e-04
 -1.468007533012192719e-04
 -1.458079824348064077e-04
 -1.449018815675166458e-04
 -1.440804199895059988e-04
 -1.433402156462266173e-04
 -1.426768854939884916e-04
 -1.420853674686095157e-04
 -1.415602011747549890e-04
 -5.841634973475198002e-05
 -5.823952860909849917e-05
 -5.804036947847922458e-05
 -5.781703428285445400e-05
 -5.756781895684018828e-05
 -5.729124783583677751e-05
 -5.698618194322611653e-05
 -5.665193683080844175e-05
 -5.628840297761726570e-05
 -5.589615903898816399e-05
 -5.547656597381342457e-05
 -5.503182888480402386e-05
 -5.456501391732964041e-05
 -5.408001023915439055e-05
 -5.358143205506825043e-05
 -5.307446235479931052e-05
 -5.256464765176850537e-05
 -5.205765995040236379e-05
 -5.155904712456320230e-05
 -5.107399469157538734e-05
 -5.060712020705897263e-05
 -5.016231659035056599e-05
 -4.974265371855950152e-05
 -4.935034005565374097e-05
 -4.898673931231262466e-05
 -4.865243217058211138e-05
 -4.834731040540807246e-05
 -4.807069020916472326e-05
 -4.782143271345615991e-05
 -4.759806196969918889e-05
 -4.739887337084082002e-05
 -4.722202817254401248e-05
 </DataArray>
 <DataArray Name="pos.y" type="Float32" NumberOfComponents="1" format="ascii">
 1.206740144986153708e-02
 1.203043969513153087e-02
 1.198880843852745230e-02
 1.194212344249258838e-02
 1.189002848111580038e-02
 1.183221507744738367e-02
 1.176844514330109212e-02
 1.169857561660408649e-02
 1.162258363356130815e-02
 1.154059020540702807e-02
 1.145287989602770257e-02
 1.135991374728966864e-02
 1.126233280593224619e-02
 1.116095016609963513e-02
 1.105673047345988834e-02
 1.095075724779211862e-02
 1.084418996189309529e-02
 1.073821427400957484e-02
 1.063398984406234600e-02
 1.053260053930557723e-02
 1.043501146564738101e-02
 1.034203623187995684e-02
 1.025431639585853462e-02
 1.017231345891215014e-02
 1.009631236014500895e-02
 1.002643438622999837e-02
 9.962656848599801829e-03
 9.904836770849096556e-03
 9.852736077951776070e-03
 9.806046252913019207e-03
 9.764410994996853416e-03
 9.727445972735998883e-03
 1.210875420269117396e-02
 1.207160133734393008e-02
 1.202975482990166836e-02
 1.198282845687285471e-02
 1.193046415114592737e-02
 1.187235184121926412e-02
 1.180825220789786210e-02
 1.173802144884293457e-02
 1.166163658070045253e-02
 1.157921923813105651e-02
 1.149105545311996518e-02
 1.139760864721468640e-02
 1.129952317690811545e-02
 1.119761633544983162e-02
 1.109285775156304034e-02
 1.098633654369347672e-02
 1.087921817756601524e-02
 1.077269444168357099e-02
 1.066793099386678136e-02
 1.056601730927507823e-02
 1.046792348912037665e-02
 1.037446735501684064e-02
 1.028629378822003629e-02
 1.020386668203410695e-02
 1.012747245372982996e-02
 1.005723302082245363e-02
 9.993125579927798763e-03
 9.935006416716274033e-03
 9.882636225548220923e-03
 9.835704893834311055e-03
 9.793854277649690840e-03
 9.756698057083566453e-03
 1.214816613695978396e-02
 1.211083053359628646e-02
 1.206877820582470846e-02
 1.202162103129861617e-02
 1.196899918243144942e-02
 1.191060106307550645e-02
 1.184618617696624535e-02
 1.177561001388583925e-02
 1.169884947604421001e-02
 1.161602679401448415e-02
 1.152742940326822660e-02
 1.143352300040099273e-02
 1.133495510621016292e-02
 1.123254702861475711e-02
 1.112727316063508165e-02
 1.102022797374072917e-02
 1.091258266380675836e-02
 1.080553488097927423e-02
 1.070025601835745965e-02
 1.059784091365601442e-02
 1.049926444502041756e-02
 1.040534846288868574e-02
 1.031674102690427475e-02
 1.023390831811066964e-02
 1.015713816766112068e-02
 1.008655309664342574e-02
 1.002213019213967111e-02
 9.963725034365577757e-03
 9.911097141025433307e-03
 9.863934873809635309e-03
 9.821878326272841242e-03
 9.784539277058636533e-03
 1.218559741343217331e-02
 1.214808769470371828e-02
 1.210583925875668466e-02
 1.205846217406216815e-02
 1.200559493570353339e-02
 1.194692449487391034e-02
 1.188220923379285782e-02
 1.181130396771889676e-02
 1.173418548970322876e-02
 1.165097659790014645e-02
 1.156196606473160367e-02
 1.146762175408443628e-02
 1.136859420127519366e-02
 1.126570853895129606e-02
 1.115994369914259828e-02
 1.105239925336467567e-02
 1.094425185701693518e-02
 1.083670474524935610e-02
 1.073093477597191099e-02
 1.062804189676889131e-02
 1.052900553782287751e-02
 1.043465138889253414e-02
 1.034563053866477920e-02
 1.026241134856557304e-02
 1.018528299742397364e-02
 1.011436858181641307e-02
 1.004964508472966193e-02
 9.990967414363690832e-03
 9.938093967339051149e-03
 9.890711651586834782e-03
 9.848458881220566175e-03
 9.810945623036448557e-03
 1.222100778828297263e-02
 1.218333282965612836e-02