<VTKFile type="UnstructuredGrid" byte_order="BigEndian">
<UnstructuredGrid><Piece NumberOfPoints="2680" NumberOfCells="2527">
<Points>
 <DataArray type="Float32" NumberOfComponents="3" format="ascii">
 -5.006531253457069397e-03 1.676174439489841461e-02 0.000000000000000000e+00
 -4.994262941181659698e-03 1.670007221400737762e-02 0.000000000000000000e+00
 -4.981996491551399231e-03 1.663840748369693756e-02 0.000000000000000000e+00
 -4.969733767211437225e-03 1.657676324248313904e-02 0.000000000000000000e+00
 -4.957476630806922913e-03 1.651514507830142975e-02 0.000000000000000000e+00
 -4.945227410644292831e-03 1.645356602966785431e-02 0.000000000000000000e+00
 -4.932986572384834290e-03 1.639203354716300964e-02 0.000000000000000000e+00
 -4.920757375657558441e-03 1.633055508136749268e-02 0.000000000000000000e+00
 -4.908541217446327209e-03 1.626914367079734802e-02 0.000000000000000000e+00
 -4.896339960396289825e-03 1.620780676603317261e-02 0.000000000000000000e+00
 -4.884155001491308212e-03 1.614655181765556335e-02 0.000000000000000000e+00
 -4.871988203376531601e-03 1.608539000153541565e-02 0.000000000000000000e+00
 -4.859841894358396530e-03 1.602433063089847565e-02 0.000000000000000000e+00
 -4.847717937082052231e-03 1.596338115632534027e-02 0.000000000000000000e+00
 -4.835617262870073318e-03 1.590255089104175568e-02 0.000000000000000000e+00
 -4.823542665690183640e-03 1.584184914827346802e-02 0.000000000000000000e+00
 -4.811494611203670502e-03 1.578128524124622345e-02 0.000000000000000000e+00
 -4.799475893378257751e-03 1.572086662054061890e-02 0.000000000000000000e+00
 -4.787488374859094620e-03 1.566060259938240051e-02 0.000000000000000000e+00
 -4.775532521307468414e-03 1.560050155967473984e-02 0.000000000000000000e+00
 -4.763611126691102982e-03 1.554057188332080841e-02 0.000000000000000000e+00
 -4.751725587993860245e-03 1.548082102090120316e-02 0.000000000000000000e+00
 -4.739876836538314819e-03 1.542125921696424484e-02 0.000000000000000000e+00
 -4.728067666292190552e-03 1.536189205944538116e-02 0.000000000000000000e+00
 -4.716298542916774750e-03 1.530272979289293289e-02 0.000000000000000000e+00
 -4.704571794718503952e-03 1.524377800524234772e-02 0.000000000000000000e+00
 -4.692888818681240082e-03 1.518504694104194641e-02 0.000000000000000000e+00
 -4.681251011788845062e-03 1.512654218822717667e-02 0.000000000000000000e+00
 -4.669659771025180817e-03 1.506827212870121002e-02 0.000000000000000000e+00
 -4.658116493374109268e-03 1.501024421304464340e-02 0.000000000000000000e+00
 -4.646623041480779648e-03 1.495246496051549911e-02 0.000000000000000000e+00
 -4.635180346667766571e-03 1.489494182169437408e-02 0.000000000000000000e+00
 -4.623789805918931961e-03 1.483768224716186523e-02 0.000000000000000000e+00
 -4.612453281879425049e-03 1.478069275617599487e-02 0.000000000000000000e+00
 -4.601171705871820450e-03 1.472397893667221069e-02 0.000000000000000000e+00
 -4.589946474879980087e-03 1.466754917055368423e-02 0.000000000000000000e+00
 -4.578778520226478577e-03 1.461140811443328857e-02 0.000000000000000000e+00
 -4.567669704556465149e-03 1.455556228756904602e-02 0.000000000000000000e+00
 -4.556620493531227112e-03 1.450001820921897888e-02 0.000000000000000000e+00
 -4.545632749795913696e-03 1.444478146731853485e-02 0.000000000000000000e+00
 -4.534707404673099518e-03 1.438985858112573624e-02 0.000000000000000000e+00
 -4.523844923824071884e-03 1.433525327593088150e-02 0.000000000000000000e+00
 -4.513047169893980026e-03 1.428097300231456757e-02 0.000000000000000000e+00
 -4.502315074205398560e-03 1.422702148556709290e-02 0.000000000000000000e+00
 -4.491649568080902100e-03 1.417340431362390518e-02 0.000000000000000000e+00
 -4.481051117181777954e-03 1.412012614309787750e-02 0.000000000000000000e+00
 -4.470521584153175354e-03 1.406719256192445755e-02 0.000000000000000000e+00
 -4.460060968995094299e-03 1.401460729539394379e-02 0.000000000000000000e+00
 -4.449670668691396713e-03 1.396237500011920929e-02 0.000000000000000000e+00
 -4.439351614564657211e-03 1.391049940139055252e-02 0.000000000000000000e+00
 -4.429103806614875793e-03 1.385898515582084656e-02 0.000000000000000000e+00
 -4.418929107487201691e-03 1.380783598870038986e-02 0.000000000000000000e+00
 -4.408827982842922211e-03 1.375705562531948090e-02 0.000000000000000000e+00
 -4.398800432682037354e-03 1.370664779096841812e-02 0.000000000000000000e+00
 -4.388847853988409042e-03 1.365661527961492538e-02 0.000000000000000000e+00
 -4.378970712423324585e-03 1.360696274787187576e-02 0.000000000000000000e+00
 -4.369169473648071289e-03 1.355769112706184387e-02 0.000000000000000000e+00
 -4.359445068985223770e-03 1.350880507379770279e-02 0.000000000000000000e+00
 -4.349797498434782028e-03 1.346030645072460175e-02 0.000000000000000000e+00
 -4.340227693319320679e-03 1.341219898313283920e-02 0.000000000000000000e+00
 -4.330736119300127029e-03 1.336448360234498978e-02 0.000000000000000000e+00
 -4.321322776377201080e-03 1.331716310232877731e-02 0.000000000000000000e+00
 -4.311988595873117447e-03 1.327023934572935104e-02 0.000000000000000000e+00
 -4.302733577787876129e-03 1.322371512651443481e-02 0.000000000000000000e+00
 -4.293558653444051743e-03 1.317759137600660324e-02 0.000000000000000000e+00
 -4.284463822841644287e-03 1.313186995685100555e-02 0.000000000000000000e+00
 -4.275449085980653763e-03 1.308655273169279099e-02 0.000000000000000000e+00
 -4.266514908522367477e-03 1.304164063185453415e-02 0.000000000000000000e+00
 -4.257661756128072739e-03 1.299713458865880966e-02 0.000000000000000000e+00
 -4.248889628797769547e-03 1.295303646475076675e-02 0.000000000000000000e+00
 -4.240198526531457901e-03 1.290934719145298004e-02 0.000000000000000000e+00
 -4.231589380651712418e-03 1.286606676876544952e-02 0.000000000000000000e+00
 -4.223061259835958481e-03 1.282319612801074982e-02 0.000000000000000000e+00
 -4.214615095406770706e-03 1.278073620051145554e-02 0.000000000000000000e+00
 -4.206250421702861786e-03 1.273868605494499207e-02 0.000000000000000000e+00
 -4.197967238724231720e-03 1.269704755395650864e-02 0.000000000000000000e+00
 -4.189766012132167816e-03 1.265582069754600525e-02 0.000000000000000000e+00
 -4.181646741926670074e-03 1.261500362306833267e-02 0.000000000000000000e+00
 -4.173608962446451187e-03 1.257459819316864014e-02 0.000000000000000000e+00
 -4.165653139352798462e-03 1.253460254520177841e-02 0.000000000000000000e+00
 -4.157778806984424591e-03 1.249501761049032211e-02 0.000000000000000000e+00
 -4.149985965341329575e-03 1.245584245771169662e-02 0.000000000000000000e+00
 -4.142274614423513412e-03 1.241707708686590195e-02 0.000000000000000000e+00
 -4.134644288569688797e-03 1.237871963530778885e-02 0.000000000000000000e+00
 -4.127094987779855728e-03 1.234076917171478271e-02 0.000000000000000000e+00
 -4.119626712054014206e-03 1.230322569608688354e-02 0.000000000000000000e+00
 -4.112239461392164230e-03 1.226608827710151672e-02 0.000000000000000000e+00
 -4.104932304471731186e-03 1.222935505211353302e-02 0.000000000000000000e+00
 -4.097705241292715073e-03 1.219302508980035782e-02 0.000000000000000000e+00
 -4.090558271855115891e-03 1.215709652751684189e-02 0.000000000000000000e+00
 -4.083490930497646332e-03 1.212156936526298523e-02 0.000000000000000000e+00
 -4.076503217220306396e-03 1.208644080907106400e-02 0.000000000000000000e+00
 -4.069594666361808777e-03 1.205170992761850357e-02 0.000000000000000000e+00
 -4.062764346599578857e-03 1.201737485826015472e-02 0.000000000000000000e+00
 -4.056012723594903946e-03 1.198343373835086823e-02 0.000000000000000000e+00
 -4.049338866025209427e-03 1.194988470524549484e-02 0.000000000000000000e+00
 -4.042743239551782608e-03 1.191672682762145996e-02 0.000000000000000000e+00
 -4.036224447190761566e-03 1.188395638018846512e-02 0.000000000000000000e+00
 -4.029782488942146301e-03 1.185157243162393570e-02 0.000000000000000000e+00
 -4.023416899144649506e-03 1.181957311928272247e-02 0.000000000000000000e+00
 -4.017127677798271179e-03 1.178795564919710159e-02 0.000000000000000000e+00
 -4.010913427919149399e-03 1.175671815872192383e-02 0.000000000000000000e+00
 -4.004774615168571472e-03 1.172585785388946533e-02 0.000000000000000000e+00
 -3.998710773885250092e-03 1.169537287205457687e-02 0.000000000000000000e+00
 -3.992720507085323334e-03 1.166526135057210922e-02 0.000000000000000000e+00
 -3.986804280430078506e-03 1.163551956415176392e-02 0.000000000000000000e+00
 -3.980961162596940994e-03 1.160614565014839172e-02 0.000000000000000000e+00
 -3.975190687924623489e-03 1.157713681459426880e-02 0.000000000000000000e+00
 -3.969492390751838684e-03 1.154849119484424591e-02 0.000000000000000000e+00
 -3.963865805417299271e-03 1.152020599693059921e-02 0.000000000000000000e+00
 -3.958310466259717941e-03 1.149227749556303024e-02 0.000000000000000000e+00
 -3.952825441956520081e-03 1.146470475941896439e-02 0.000000000000000000e+00
 -3.947410266846418381e-03 1.143748313188552856e-02 0.000000000000000000e+00
 -3.942064940929412842e-03 1.141061075031757355e-02 0.000000000000000000e+00
 -3.936788067221641541e-03 1.138408482074737549e-02 0.000000000000000000e+00
 -3.931579645723104477e-03 1.135790254920721054e-02 0.000000000000000000e+00
 -3.926439210772514343e-03 1.133206114172935486e-02 0.000000000000000000e+00
 -3.921365831047296524e-03 1.130655687302350998e-02 0.000000000000000000e+00
 -3.916359506547451019e-03 1.128138788044452667e-02 0.000000000000000000e+00
 -3.911418840289115906e-03 1.125655137002468109e-02 0.000000000000000000e+00
 -3.906543366611003876e-03 1.123204268515110016e-02 0.000000000000000000e+00
 -3.901733085513114929e-03 1.120786089450120926e-02 0.000000000000000000e+00
 -3.896986832842230797e-03 1.118400227278470993e-02 0.000000000000000000e+00
 -3.892304375767707825e-03 1.116046309471130371e-02 0.000000000000000000e+00
 -3.887685015797615051e-03 1.113724149763584137e-02 0.000000000000000000e+00
 -3.883128054440021515e-03 1.111433282494544983e-02 0.000000000000000000e+00
 -3.878633026033639908e-03 1.109173614531755447e-02 0.000000000000000000e+00
[...]
<CellData>
 <DataArray Name="pos.x" type="Float32" NumberOfComponents="1" format="ascii">
 -4.943908037392018631e-03
 -4.931778775915290729e-03
 -4.919652277655207906e-03
 -4.907530381812122942e-03
 -4.895414924749125207e-03
 -4.883307738865464397e-03
 -4.871210651471148678e-03
 -4.859125483670452376e-03
 -4.847054049252510870e-03
 -4.834998153592656896e-03
 -4.822959592562884104e-03
 -4.810940151457217956e-03
 -4.798941603929123001e-03
 -4.786965710944789815e-03
 -4.775014219752925226e-03
 -4.763088862871974784e-03
 -4.751191357096711670e-03
 -4.739323402524598002e-03
 -4.727486681603594240e-03
 -4.715682858203046508e-03
 -4.703913576706496465e-03
 -4.692180461130654283e-03
 -4.680485114268309078e-03
 -4.668829116858724294e-03
 -4.657214026784122461e-03
 -4.645641378295137236e-03
 -4.634112681263711370e-03
 -4.622629420465879622e-03
 -4.611193054895495677e-03
 -4.599805017105324315e-03
 -4.588466712583345875e-03
 -4.577179519155835305e-03
 -4.565944786426384683e-03
 -4.554763835244038730e-03
 -4.543637957203932112e-03
 -4.532568414182789468e-03
 -4.521556437903444768e-03
 -4.510603229535206996e-03
 -4.499709959324609508e-03
 -4.488877766260281413e-03
 -4.478107757768899112e-03
 -4.467401009445238179e-03
 -4.456758564812758963e-03
 -4.446181435117266441e-03
 -4.435670599151677121e-03
 -4.425227003111482753e-03
 -4.414851560482695864e-03
 -4.404545151959026253e-03
 -4.394308625388717790e-03
 -4.384142795751962314e-03
 -4.374048445166630293e-03
 -4.364026322922031145e-03
 -4.354077145541198485e-03
 -4.344201596869658524e-03
 -4.334400328190230606e-03
 -4.324673958364575431e-03
 -4.315023073998606150e-03
 -4.305448229632889007e-03
 -4.295949947956057696e-03
 -4.286528720040946525e-03
 -4.277185005602670426e-03
 -4.267919233277892889e-03
 -4.258731800923567894e-03
 -4.249623075935997189e-03
 -4.240593395587926098e-03
 -4.231643067383294467e-03
 -4.222772369429220359e-03
 -4.213981550823182529e-03
 -4.205270832056433837e-03
 -4.196640405430122379e-03
 -4.188090435487138753e-03
 -4.179621059453834768e-03
 -4.171232387695781273e-03
 -4.162924504183358396e-03
 -4.154697466967299628e-03
 -4.146551308664233118e-03
 -4.138486036950114223e-03
 -4.130501635061553656e-03
 -4.122598062304499988e-03
 -4.114775254568542665e-03
 -4.107033124846774796e-03
 -4.099371563760258186e-03
 -4.091790440087870323e-03
 -4.084289601296603282e-03
 -4.076868874077997466e-03
 -4.069528064883544058e-03
 -4.062266960463615031e-03
 -4.055085328405991577e-03
 -4.047982917674887784e-03
 -4.040959459149599635e-03
 -4.034014666162509533e-03
 -4.027148235035027390e-03
 -4.020359845611670355e-03
 -4.013649161792335815e-03
 -4.007015832061241144e-03
 -4.000459490011062588e-03
 -3.993979754866712473e-03
 -3.987576232000676971e-03
 -3.981248513447917595e-03
 -3.974996178411717429e-03
 -3.968818793768059787e-03
 -3.962715914561555294e-03
 -3.956687084496798845e-03
 -3.950731836423400020e-03
 -3.944849692814218593e-03
 -3.939040166236786912e-03
 -3.933302759819067539e-03
 -3.927636967705341181e-03
 -3.922042275508029301e-03
 -3.916518160749546396e-03
 -3.911064093297622786e-03
 -3.905679535792201413e-03
 -3.900363944065318549e-03
 -3.895116767551442660e-03
 -3.889937449691294180e-03
 -3.884825428325866265e-03
 -3.879780136083414710e-03
 -3.874801000757443353e-03
 -3.869887445676136861e-03
 -3.865038890063437343e-03
 -3.860254749392361996e-03
 -3.855534435728247625e-03
 -3.850877358065590145e-03
 -3.846282922654167390e-03
 -3.841750533318674925e-03
 -3.837279591768535947e-03
 -3.832869497900005980e-03
 -3.828519650090018121e-03
 -3.824229445480664680e-03
 -3.819998280257357916e-03
 -3.815825549916500477e-03
 -3.811710649527233052e-03
 -3.807652973983824060e-03
 -4.830536460574417004e-03
 -4.818684792967885960e-03
 -4.806835830578302937e-03
 -4.794991373951560006e-03
 -4.783153220852414539e-03
 -4.771323165158858869e-03
 -4.759502995759141465e-03
 -4.747694495456018446e-03
 -4.735899439880935508e-03
 -4.724119596413989958e-03
 -4.712356723119194742e-03
 -4.700612567687667553e-03
 -4.688888866397916515e-03
 -4.677187343088789334e-03
 -4.665509708149377655e-03
 -4.653857657526383994e-03
 -4.642232871750407580e-03
 -4.630637014981026783e-03
 -4.619071734074185753e-03
 -4.607538657669824414e-03
 -4.596039395304538783e-03
 -4.584575536547006933e-03
 -4.573148650157614348e-03
 -4.561760283276488845e-03
 -4.550411960634933445e-03
 -4.539105183796842205e-03
 -4.527841430426296498e-03
 -4.516622153585950032e-03
 -4.505448781062213609e-03
 -4.494322714722832381e-03
 -4.483245329902602917e-03
 -4.472217974822002319e-03
 -4.461241970034603328e-03
 -4.450318607908314815e-03
 -4.439449152135716177e-03
 -4.428634837279382848e-03
 -4.417876868345300446e-03
 -4.407176420392027241e-03
 -4.396534638169434517e-03
 -4.385952635790569751e-03
 -4.375431496435008491e-03
 -4.364972272083839783e-03
 -4.354575983287123885e-03
 -4.344243618961414477e-03
 -4.333976136218640335e-03
 -4.323774460226680397e-03
 -4.313639484099136834e-03
 -4.303572068814813523e-03
 -4.293573043167149723e-03
 -4.283643203743778098e-03
 -4.273783314930906622e-03
 -4.263994108949402569e-03
 -4.254276285915936304e-03
 -4.244630513930376658e-03
 -4.235057429190913249e-03
 -4.225557636131780509e-03
 -4.216131707588157904e-03
 -4.206780184982449738e-03
 -4.197503578535455651e-03
 -4.188302367498003900e-03
 -4.179177000405423156e-03
 -4.170127895352027797e-03
 -4.161155440284873379e-03
 -4.152259993317552501e-03
 -4.143441883061738627e-03
 -4.134701408975527230e-03
 -4.126038841728704373e-03
 -4.117454423584165565e-03
 -4.108948368792885407e-03
 -4.100520864004434697e-03
 -4.092172068688477472e-03
 -4.083902115572156377e-03
 -4.075711111083878298e-03
 -4.067599135813067257e-03
 -4.059566244976109406e-03
 -4.051612468892860745e-03
 -4.043737813471452898e-03
 -4.035942260700286707e-03
 -4.028225769146867585e-03
 -4.020588274462780047e-03
 -4.013029689894039888e-03
 -4.005549906796122307e-03
 -3.998148795152168047e-03
 -3.990826204095587922e-03
 -3.983581962434233799e-03
 -3.976415879177278359e-03
 -3.969327744062639551e-03
 -3.962317328085981048e-03
 -3.955384384029090802e-03
 -3.948528646988310777e-03
 -3.941749834901855584e-03
 -3.935047649075692176e-03
 -3.928421774707173929e-03
 -3.921871881406828984e-03
 -3.915397623716601952e-03
 -3.908998641625256731e-03
 -3.902674561079547480e-03
 -3.896424994491500329e-03
 -3.890249541241386048e-03
 -3.884147788175093454e-03
 -3.878119310097084046e-03
 -3.872163670257685805e-03
 -3.866280420833263353e-03
 -3.860469103403095167e-03
 -3.854729249416267468e-03
 -3.849060380654947735e-03
 -3.843462009689819440e-03
 -3.837933640327504965e-03
 -3.832474768052046218e-03
 -3.827084880458917707e-03
 -3.821763457680635301e-03
 -3.816509972804912193e-03
 -3.811323892286472715e-03
 -3.806204676347958640e-03
 -3.801151779376005149e-03
 -3.796164650307025986e-03
 -3.791242733005827266e-03
 -3.786385466635708123e-03
 -3.781592286019911601e-03
 -3.776862621995870795e-03
 -3.772195901759894943e-03
 -3.767591549204046212e-03
 -3.763048985244868069e-03
 -3.758567628143475586e-03
 -3.754146893817799160e-03
 -3.749786196145436876e-03
 -3.745484947259449145e-03
 -3.741242557836125908e-03
 -3.737058437372826024e-03
 -3.732931994459693942e-03
 -3.728862637042747868e-03
 -3.724849772678394053e-03
 -3.720892808780003856e-03
 -4.716152786579651604e-03
 -4.704581543868584063e-03
 -4.693012947480554829e-03
 -4.681448758711428265e-03
 -4.669890736133627471e-03
 -4.658340634510129731e-03
 -4.646800203716157200e-03
 -4.635271187665324956e-03
 -4.623755323244516449e-03
 -4.612254339257959926e-03
 -4.600769955381923092e-03
 -4.589303881130827462e-03
 -4.577857814838246636e-03
 -4.566433442651137049e-03
 -4.555032437539438366e-03
 -4.543656458325410694e-03
 -4.532307148727576437e-03
 -4.520986136427376616e-03
 -4.509695032154265558e-03
 -4.498435428793648438e-03
 -4.487208900515743046e-03
 -4.476017001930419036e-03
 -4.464861267263803626e-03
 -4.453743209562583023e-03
 -4.442664319922450325e-03
 -4.431626066744968201e-03
 -4.420629895021015339e-03
 -4.409677225642238269e-03
 -4.398769454742709924e-03
 -4.387907953067854590e-03
 -4.377094065374860683e-03
 -4.366329109862635872e-03
 -4.355614377631236017e-03
 -4.344951132174547023e-03
 -4.334340608900880132e-03
 -4.323784014687741262e-03
 -4.313282527466014322e-03
 -4.302837295836373088e-03
 -4.292449438716390737e-03
 -4.282120045020225765e-03
 -4.271850173368243152e-03
 -4.261640851828947356e-03
 -4.251493077690727401e-03
 -4.241407817265532149e-03
 -4.231386005721659432e-03
 -4.221428546947557717e-03
 -4.211536313444812739e-03
 -4.201710146251046857e-03
 -4.191950854890501982e-03
 -4.182259217354378222e-03
 -4.172635980107306138e-03
 -4.163081858122700402e-03
 -4.153597534943673751e-03
 -4.144183662769941427e-03
 -4.134840862570916473e-03
 -4.125569724222608037e-03
 -4.116370806668433711e-03
 -4.107244638104505345e-03
 -4.098191716185754091e-03
 -4.089212508254600788e-03
 -4.080307451591588808e-03
 -4.071476953683309495e-03
 -4.062721392513314426e-03
 -4.054041116869426878e-03
 -4.045436446668510683e-03
 -4.036907673299641904e-03
 -4.028455059983075161e-03
 -4.020078842143103362e-03
 -4.011779227797240312e-03
 -4.003556397958399869e-03
 -3.995410507048935411e-03
 -3.987341683329038468e-03
 -3.979350029333712964e-03
 -3.971435622321754615e-03
 -3.963598514734690235e-03
 -3.955838734663021973e-03
 -3.948156286322425379e-03
 -3.940551150535365893e-03
 -3.933023285221686448e-03
 -3.925572625892315842e-03
 -3.918199086151079140e-03
 -3.910902558197951358e-03
 -3.903682913339018030e-03
 -3.896540002497195145e-03
 -3.889473656727102015e-03
 -3.882483687731188779e-03
 -3.875569888376235572e-03
 -3.868732033212570875e-03
 -3.861969878991340470e-03
 -3.855283165182854955e-03
 -3.848671614492445766e-03
 -3.842134933376701537e-03
 -3.835672812556147841e-03
 -3.829284927526178765e-03
 -3.822970939065041627e-03
 -3.816730493738788518e-03
 -3.810563224401616964e-03
 -3.804468750693386879e-03
 -3.798446679531419443e-03
 -3.792496605598636144e-03
 -3.786618111825173529e-03
 -3.780810769866124309e-03
 -3.775074140572265858e-03
 -3.769407774455697281e-03
 -3.763811212148276530e-03
 -3.758283984854285647e-03
 -3.752825614796508405e-03
 -3.747435615654290918e-03
 -3.742113492995882435e-03
 -3.736858744702403062e-03
 -3.731670861385515733e-03
 -3.726549326796037721e-03
 -3.721493618226086406e-03
 -3.716503206903444372e-03
 -3.711577558377336314e-03
 -3.706716132895855435e-03
 -3.701918385777841318e-03
 -3.697183767773156403e-03
 -3.692511725417561407e-03
 -3.687901701378156014e-03
 -3.683353134791385406e-03
 -3.678865461591990672e-03
 -3.674438114834281763e-03
 -3.670070525005551289e-03
 -3.665762120330763076e-03
 -3.661512327069470045e-03
 -3.657320569804306531e-03
 -3.653186271721987032e-03
 -3.649108854885728479e-03
 -3.645087740500223619e-03
 -3.641122349168669347e-03
 -3.637212101141024719e-03
 -3.633356416557037040e-03
 -4.600757005491584208e-03
 -4.589468997954105831e-03
 -4.578183576952920761e-03
 -4.566902463939936235e-03
 -4.555627377700147661e-03
 -4.544360033290718165e-03
 -4.533102140983916173e-03
 -4.521855405216091556e-03
 -4.510621523545368765e-03
 -4.499402185618186188e-03
 -4.488199072145860474e-03
 -4.477013853893237541e-03
 -4.465848190679689612e-03
 -4.454703730396668455e-03
 -4.443582108037131065e-03
 -4.432484944745684018e-03
 -4.421413846883460834e-03
 -4.410370405113436983e-03
 -4.399356193506739378e-03
 -4.388372768668030027e-03
 -4.377421668884065586e-03
 -4.366504413295838744e-03
 -4.355622501094557307e-03
 -4.344777410740130463e-03
 -4.333970599209476665e-03
 -4.323203501267258025e-03
 -4.312477528765372957e-03
 -4.301794069970445514e-03
 -4.291154488918058965e-03
 -4.280560124797184833e-03
 -4.270012291362684960e-03
 -4.259512276377798272e-03
 -4.249061341086865506e-03
 -4.238660719717385512e-03
 -4.228311619012861157e-03
 -4.218015217797510368e-03
 -4.207772666568462133e-03
 -4.197585087122810039e-03
 -4.187453572211835041e-03
 -4.177379185227952929e-03
 -4.167362959922778394e-03
 -4.157405900152873549e-03
 -4.147508979659158754e-03
 -4.137673141874550868e-03
 -4.127899299761188072e-03
 -4.118188335678506749e-03
 -4.108541101278438169e-03
 -4.098958417431404315e-03
 -4.089441074178786460e-03
 -4.079989830713906529e-03
 -4.070605415390238409e-03
 -4.061288525756238596e-03
 -4.052039828615749267e-03
 -4.042859960114514144e-03
 -4.033749525851391612e-03
 -4.024709101012723805e-03
 -4.015739230532520965e-03
 -4.006840429271785881e-03
 -3.998013182223709126e-03
 -3.989257944737402417e-03
 -3.980575142763345502e-03
 -3.971965173118180426e-03
 -3.963428403768996279e-03
 -3.954965174134690564e-03
 -3.946575795405825315e-03
 -3.938260550881277945e-03
 -3.930019696318718704e-03
 -3.921853460302217667e-03
 -3.913762044623450218e-03
 -3.905745624675054702e-03
 -3.897804349858252550e-03
 -3.889938344001089669e-03
 -3.882147705788220257e-03
 -3.874432509200677419e-03
 -3.866792803964863405e-03
 -3.859228616010860081e-03
 -3.851739947937344796e-03
 -3.844326779485886768e-03
 -3.836989068018794007e-03
 -3.829726749005704558e-03
 -3.822539736512487515e-03
 -3.815427923696894288e-03
 -3.808391183305462335e-03
 -3.801429368176230655e-03
 -3.794542311741079706e-03
 -3.787729828531958415e-03
 -3.780991714687321082e-03
 -3.774327748459299810e-03
 -3.767737690721335332e-03
 -3.761221285474787394e-03
 -3.754778260354803970e-03
 -3.748408327135379497e-03
 -3.742111182230515188e-03
 -3.735886507195954401e-03
 -3.729733969225128374e-03
 -3.723653221643565426e-03
 -3.717643904399106029e-03
 -3.711705644548149267e-03
 -3.705838056737601523e-03
 -3.700040743681887699e-03
 -3.694313296634600848e-03
 -3.688655295855970250e-03
 -3.683066311073219731e-03
 -3.677545901935709658e-03
 -3.672093618464411600e-03
 -3.666709001493794872e-03
 -3.661391583108481156e-03
 -3.656140887071556832e-03
 -3.650956429247646882e-03
 -3.645837718017450480e-03
 -3.640784254685641708e-03
 -3.635795533881461868e-03
 -3.630871043950783909e-03
 -3.626010267342268372e-03
 -3.621212680984535644e-03
 -3.616477756655047966e-03
 -3.611804961343076468e-03
 -3.607193757602638034e-03
 -3.602643603898909169e-03
 -3.598153954945892963e-03
 -3.593724262036308847e-03
 -3.589353973363440184e-03
 -3.585042534335454011e-03
 -3.580789387880350255e-03
 -3.576593974744441285e-03
 -3.572455733782771512e-03
 -3.568374102239287807e-03
 -3.564348516023261183e-03
 -3.560378409974101870e-03
 -3.556463218119931130e-03
 -3.552602373928874600e-03
 -3.548795310552564121e-03
 -3.545041461060599933e-03
 -4.484349107114807796e-03
 -4.473347123581022065e-03
 -4.462347665905802042e-03
 -4.451352415103292451e-03
 -4.440363049579421420e-03
 -4.429381244094149003e-03
 -4.418408668727337799e-03
 -4.407446987851942367e-03
 -4.396497859114317959e-03
 -4.385562932422476003e-03
 -4.374643848946638790e-03
 -4.363742240129120029e-03
 -4.352859726708799629e-03
 -4.341997917758030380e-03
 -4.331158409736312470e-03
 -4.320342785558831111e-03
 -4.309552613684259140e-03
 -4.298789447219618885e-03
 -4.288054823045125453e-03
 -4.277350260960863237e-03
 -4.266677262853858441e-03
 -4.256037311887938060e-03
 -4.245431871718225413e-03
 -4.234862385727795886e-03
 -4.224330276291155851e-03
 -4.213836944063130072e-03
 -4.203383767293294646e-03
 -4.192972101168843807e-03
 -4.182603277182900779e-03
 -4.172278602534447434e-03
 -4.161999359552551354e-03
 -4.151766805152910800e-03
 -4.141582170321798755e-03
 -4.131446659630303928e-03
 -4.121361450778114090e-03
 -4.111327694167084615e-03
 -4.101346512505530707e-03
 -4.091419000441338591e-03
 -4.081546224226872445e-03
 -4.071729221412294375e-03
 -4.061969000569806698e-03
 -4.052266541048375921e-03
 -4.042622792755695346e-03
 -4.033038675972744000e-03
 -4.023515081194955351e-03
 -4.014052869003514705e-03
 -4.004652869964529273e-03
 -3.995315884556576574e-03
 -3.986042683125665814e-03
 -3.976834005867386709e-03
 -3.967690562835748773e-03
 -3.958613033977605167e-03
 -3.949602069193599609e-03
 -3.940658288422643936e-03
 -3.931782281752053965e-03
 -3.922974609550095373e-03
 -3.914235802622109683e-03
 -3.905566362389059805e-03
 -3.896966761086752620e-03
 -3.888437441986742141e-03
 -3.879978819637077900e-03
 -3.871591280121591469e-03
 -3.863275181339127957e-03
 -3.855030853299315930e-03
 -3.846858598435651169e-03
 -3.838758691935169592e-03
 -3.830731382083044003e-03
 -3.822776890622272931e-03
 -3.814895413126356480e-03
 -3.807087119386338720e-03
 -3.799352153808686905e-03
 -3.791690635825744390e-03
 -3.784102660316362911e-03
 -3.776588298036673893e-03
 -3.769147596059628340e-03
 -3.761780578223694344e-03
 -3.754487245589099766e-03
 -3.747267576899700626e-03
 -3.740121529054046996e-03
 -3.733049037578713581e-03
 -3.726050017108859750e-03
 -3.719124361871923353e-03
 -3.712271946175402845e-03
 -3.705492624897242793e-03
 -3.698786233978627620e-03
 -3.692152590918712594e-03
 -3.685591495269967179e-03
 -3.679102729135230558e-03
 -3.672686057663258376e-03
 -3.666341229544916105e-03
 -3.660067977508276501e-03
 -3.653866018811392953e-03
 -3.647735055734573247e-03
 -3.641674776068528144e-03
 -3.635684853601623117e-03
 -3.629764948602025223e-03
 -3.623914708297400547e-03
 -3.618133767350711124e-03
 -3.612421748330842813e-03
 -3.606778262179101933e-03
 -3.601202908670909312e-03
 -3.595695276871866460e-03
 -3.590254945588198209e-03
 -3.584881483811956475e-03
 -3.579574451159299887e-03
 -3.574333398303662906e-03
 -3.569157867401276125e-03
 -3.564047392510537402e-03
 -3.559001500005163146e-03
 -3.554019708978769197e-03
 -3.549101531644069732e-03
 -3.544246473723635434e-03
 -3.539454034833314656e-03
 -3.534723708859707509e-03
 -3.530054984327064653e-03
 -3.525447344759544827e-03
 -3.520900269034313475e-03
 -3.516413231726639096e-03
 -3.511985703448158250e-03
 -3.507617151176574063e-03
 -3.503307038577481696e-03
 -3.499054826319406702e-03
 -3.494859972378503137e-03
 -3.490721932339358943e-03
 -3.486640159683798788e-03
 -3.482614106074465813e-03
 -3.478643221630441876e-03
 -3.474726955193907507e-03
 -3.470864754590381220e-03
 -3.467056066881186397e-03
 -3.463300338607228513e-03
 -3.459597016027199986e-03
 -3.455945545346617020e-03
 -4.366929080972642950e-03
 -4.356215888122124541e-03
 -4.345505159563937958e-03
 -4.334798535281611520e-03
 -4.324097652710641448e-03
 -4.313404145723888534e-03
 -4.302719643621792135e-03
 -4.292045770128791009e-03
 -4.281384142396298803e-03
 -4.270736370015755685e-03
 -4.260104054040953804e-03
 -4.249488786020899460e-03
 -4.238892147046882664e-03
 -4.228315706812015018e-03
 -4.217761022685530096e-03
 -4.207229638804192533e-03
 -4.196723085180001367e-03
 -4.186242876825937986e-03
 -4.175790512902241049e-03
 -4.165367475881278508e-03
 -4.154975230735092478e-03
 -4.144615224143107651e-03
 -4.134288883725898735e-03
 -4.123997617298664348e-03
 -4.113742812153355945e-03
 -4.103525834362465631e-03
 -4.093348028110710066e-03
 -4.083210715052964200e-03
 -4.073115193698202859e-03
 -4.063062738822152860e-03
 -4.053054600906561000e-03
 -4.043092005608431121e-03
 -4.033176153255570856e-03
 -4.023308218373634025e-03
 -4.013489349240156184e-03
 -4.003720667468880189e-03
 -3.994003267623418528e-03
 -3.984338216859725952e-03
 -3.974726554599292312e-03
 -3.965169292230019855e-03
 -3.955667412837937831e-03
 -3.946221870967368296e-03
 -3.936833592409612510e-03
 -3.927503474022160657e-03
 -3.918232383574026499e-03
 -3.909021159620940968e-03
 -3.899870611407699368e-03
 -3.890781518798245089e-03
 -3.881754632232085975e-03
 -3.872790672708037365e-03
 -3.863890331793730978e-03
 -3.855054271659751237e-03
 -3.846283125140050919e-03
 -3.837577495815733958e-03
 -3.828937958123025068e-03
 -3.820365057483674984e-03
 -3.811859310458868590e-03
 -3.803421204923410244e-03
 -3.795051200262386341e-03
 -3.786749727587122773e-03
 -3.778517189971015381e-03
 -3.770353962704757218e-03
 -3.762260393568247780e-03
 -3.754236803121781523e-03
 -3.746283485012088642e-03
 -3.738400706295543982e-03
 -3.730588707774671730e-03
 -3.722847704351443104e-03
 -3.715177885391470706e-03
 -3.707579415102611048e-03
 -3.700052432925099964e-03
 -3.692597053932294114e-03