<VTKFile type="UnstructuredGrid" byte_order="BigEndian">
<UnstructuredGrid><Piece NumberOfPoints="627" NumberOfCells="576">
<Points>
 <DataArray type="Float32" NumberOfComponents="3" format="ascii">
 -8.124999701976776123e-03 0.000000000000000000e+00 0.000000000000000000e+00
 -8.115859702229499817e-03 0.000000000000000000e+00 0.000000000000000000e+00
 -8.105543442070484161e-03 0.000000000000000000e+00 0.000000000000000000e+00
 -8.093944750726222992e-03 0.000000000000000000e+00 0.000000000000000000e+00
 -8.080967701971530914e-03 0.000000000000000000e+00 0.000000000000000000e+00
 -8.066521957516670227e-03 0.000000000000000000e+00 0.000000000000000000e+00
 -8.050533942878246307e-03 0.000000000000000000e+00 0.000000000000000000e+00
 -8.032952435314655304e-03 0.000000000000000000e+00 0.000000000000000000e+00
 -8.013753220438957214e-03 0.000000000000000000e+00 0.000000000000000000e+00
 -7.992948405444622040e-03 0.000000000000000000e+00 0.000000000000000000e+00
 -7.970590144395828247e-03 0.000000000000000000e+00 0.000000000000000000e+00
 -7.946776226162910461e-03 0.000000000000000000e+00 0.000000000000000000e+00
 -7.921651937067508698e-03 0.000000000000000000e+00 0.000000000000000000e+00
 -7.895409129559993744e-03 0.000000000000000000e+00 0.000000000000000000e+00
 -7.868283428251743317e-03 0.000000000000000000e+00 0.000000000000000000e+00
 -7.840547710657119751e-03 0.000000000000000000e+00 0.000000000000000000e+00
 -7.812500000000000000e-03 0.000000000000000000e+00 0.000000000000000000e+00
 -7.784452289342880249e-03 0.000000000000000000e+00 0.000000000000000000e+00
 -7.756716571748256683e-03 0.000000000000000000e+00 0.000000000000000000e+00
 -7.729590870440006256e-03 0.000000000000000000e+00 0.000000000000000000e+00
 -7.703348062932491302e-03 0.000000000000000000e+00 0.000000000000000000e+00
 -7.678223308175802231e-03 0.000000000000000000e+00 0.000000000000000000e+00
 -7.654409389942884445e-03 0.000000000000000000e+00 0.000000000000000000e+00
 -7.632051594555377960e-03 0.000000000000000000e+00 0.000000000000000000e+00
 -7.611246779561042786e-03 0.000000000000000000e+00 0.000000000000000000e+00
 -7.592048030346632004e-03 0.000000000000000000e+00 0.000000000000000000e+00
 -7.574466522783041000e-03 0.000000000000000000e+00 0.000000000000000000e+00
 -7.558478508144617081e-03 0.000000000000000000e+00 0.000000000000000000e+00
 -7.544032298028469086e-03 0.000000000000000000e+00 0.000000000000000000e+00
 -7.531054783612489700e-03 0.000000000000000000e+00 0.000000000000000000e+00
 -7.519457023590803146e-03 0.000000000000000000e+00 0.000000000000000000e+00
 -7.509139832109212875e-03 0.000000000000000000e+00 0.000000000000000000e+00
 -7.499999832361936569e-03 0.000000000000000000e+00 0.000000000000000000e+00
 -8.124605752527713776e-03 9.425354073755443096e-05 0.000000000000000000e+00
 -8.115467615425586700e-03 9.403147851116955280e-05 0.000000000000000000e+00
 -8.105156011879444122e-03 9.378090908285230398e-05 0.000000000000000000e+00
 -8.093568496406078339e-03 9.349932952318340540e-05 0.000000000000000000e+00
 -8.080605417490005493e-03 9.318434604210779071e-05 0.000000000000000000e+00
 -8.066181093454360962e-03 9.283381223212927580e-05 0.000000000000000000e+00
 -8.050219155848026276e-03 9.244595275958999991e-05 0.000000000000000000e+00
 -8.032670244574546814e-03 9.201951615978032351e-05 0.000000000000000000e+00
 -8.013510145246982574e-03 9.155392035609111190e-05 0.000000000000000000e+00
 -7.992750033736228943e-03 9.104944911086931825e-05 0.000000000000000000e+00
 -7.970442064106464386e-03 9.050735388882458210e-05 0.000000000000000000e+00
 -7.946682162582874298e-03 8.992999210022389889e-05 0.000000000000000000e+00
 -7.921615615487098694e-03 8.932087075663730502e-05 0.000000000000000000e+00
 -7.895432412624359131e-03 8.868462464306503534e-05 0.000000000000000000e+00
 -7.868367247283458710e-03 8.802694355836138129e-05 0.000000000000000000e+00
 -7.840691134333610535e-03 8.735439041629433632e-05 0.000000000000000000e+00
 -7.812698371708393097e-03 8.667418296681717038e-05 0.000000000000000000e+00
 -7.784700952470302582e-03 8.599383727414533496e-05 0.000000000000000000e+00
 -7.757008075714111328e-03 8.532089850632473826e-05 0.000000000000000000e+00
 -7.729916367679834366e-03 8.466256986139342189e-05 0.000000000000000000e+00
 -7.703695911914110184e-03 8.402541425311937928e-05 0.000000000000000000e+00
 -7.678581401705741882e-03 8.341512875631451607e-05 0.000000000000000000e+00
 -7.654764223843812943e-03 8.283637725980952382e-05 0.000000000000000000e+00
 -7.632389198988676071e-03 8.229265222325921059e-05 0.000000000000000000e+00
 -7.611552719026803970e-03 8.178632560884580016e-05 0.000000000000000000e+00
 -7.592307403683662415e-03 8.131867070915177464e-05 0.000000000000000000e+00
 -7.574665360152721405e-03 8.088996401056647301e-05 0.000000000000000000e+00
 -7.558603305369615555e-03 8.049965981626883149e-05 0.000000000000000000e+00
 -7.544070482254028320e-03 8.014650666154921055e-05 0.000000000000000000e+00
 -7.530994247645139694e-03 7.982875831658020616e-05 0.000000000000000000e+00
 -7.519286591559648514e-03 7.954426109790802002e-05 0.000000000000000000e+00
 -7.508850656449794769e-03 7.929066487122327089e-05 0.000000000000000000e+00
 -7.499583065509796143e-03 7.906546670710667968e-05 0.000000000000000000e+00
 -8.123421110212802887e-03 1.882598153315484524e-04 0.000000000000000000e+00
 -8.114283904433250427e-03 1.878192706499248743e-04 0.000000000000000000e+00
 -8.103976957499980927e-03 1.873223518487066031e-04 0.000000000000000000e+00
 -8.092398755252361298e-03 1.867641258286312222e-04 0.000000000000000000e+00
 -8.079451508820056915e-03 1.861398632172495127e-04 0.000000000000000000e+00
 -8.065045811235904694e-03 1.854453439591452479e-04 0.000000000000000000e+00
 -8.049109950661659241e-03 1.846770319389179349e-04 0.000000000000000000e+00
 -8.031592704355716705e-03 1.838324387790635228e-04 0.000000000000000000e+00
 -8.012469857931137085e-03 1.829104730859398842e-04 0.000000000000000000e+00
 -7.991752587258815765e-03 1.819116150727495551e-04 0.000000000000000000e+00
 -7.969493046402931213e-03 1.808383822208270431e-04 0.000000000000000000e+00
 -7.945785298943519592e-03 1.796953874872997403e-04 0.000000000000000000e+00
 -7.920774631202220917e-03 1.784895430319011211e-04 0.000000000000000000e+00
 -7.894650101661682129e-03 1.772299583535641432e-04 0.000000000000000000e+00
 -7.867643609642982483e-03 1.759278820827603340e-04 0.000000000000000000e+00
 -7.840024307370185852e-03 1.745962508721277118e-04 0.000000000000000000e+00
 -7.812085561454296112e-03 1.732492382870987058e-04 0.000000000000000000e+00
 -7.784136105328798294e-03 1.719017018331214786e-04 0.000000000000000000e+00
 -7.756484206765890121e-03 1.705685135675594211e-04 0.000000000000000000e+00
 -7.729424163699150085e-03 1.692638470558449626e-04 0.000000000000000000e+00
 -7.703224662691354752e-03 1.680006680544465780e-04 0.000000000000000000e+00
 -7.678118534386157990e-03 1.667902397457510233e-04 0.000000000000000000e+00
 -7.654296699911355972e-03 1.656416861806064844e-04 0.000000000000000000e+00
 -7.631902582943439484e-03 1.645619922783225775e-04 0.000000000000000000e+00
 -7.611032575368881226e-03 1.635557855479419231e-04 0.000000000000000000e+00
 -7.591740228235721588e-03 1.626256125746294856e-04 0.000000000000000000e+00
 -7.574036251753568649e-03 1.617720554349943995e-04 0.000000000000000000e+00
 -7.557899225503206253e-03 1.609940372873097658e-04 0.000000000000000000e+00
 -7.543278392404317856e-03 1.602891134098172188e-04 0.000000000000000000e+00
 -7.530102506279945374e-03 1.596538495505228639e-04 0.000000000000000000e+00
 -7.518284488469362259e-03 1.590840838616713881e-04 0.000000000000000000e+00
 -7.507728412747383118e-03 1.585751306265592575e-04 0.000000000000000000e+00
 -7.498332764953374863e-03 1.581221440574154258e-04 0.000000000000000000e+00
 -8.121445775032043457e-03 2.820247318595647812e-04 0.000000000000000000e+00
 -8.112308569252490997e-03 2.813690516632050276e-04 0.000000000000000000e+00
 -8.102006278932094574e-03 2.806297561619430780e-04 0.000000000000000000e+00
 -8.090436458587646484e-03 2.797995402943342924e-04 0.000000000000000000e+00
 -8.077502250671386719e-03 2.788713900372385979e-04 0.000000000000000000e+00
 -8.063116110861301422e-03 2.778390480671077967e-04 0.000000000000000000e+00
 -8.047204464673995972e-03 2.766972756944596767e-04 0.000000000000000000e+00
 -8.029717020690441132e-03 2.754424058366566896e-04 0.000000000000000000e+00
 -8.010630495846271515e-03 2.740727504715323448e-04 0.000000000000000000e+00
 -7.989955134689807892e-03 2.725890954025089741e-04 0.000000000000000000e+00
 -7.967742159962654114e-03 2.709950786083936691e-04 0.000000000000000000e+00
 -7.944085635244846344e-03 2.692975685931742191e-04 0.000000000000000000e+00
 -7.919129915535449982e-03 2.675067225936800241e-04 0.000000000000000000e+00
 -7.893061265349388123e-03 2.656360738910734653e-04 0.000000000000000000e+00
 -7.866111584007740021e-03 2.637021825648844242e-04 0.000000000000000000e+00
 -7.838547229766845703e-03 2.617241698317229748e-04 0.000000000000000000e+00
 -7.810660172253847122e-03 2.597230777610093355e-04 0.000000000000000000e+00
 -7.782757282257080078e-03 2.577207924332469702e-04 0.000000000000000000e+00
 -7.755144499242305756e-03 2.557393163442611694e-04 0.000000000000000000e+00
 -7.728114258497953415e-03 2.537996333558112383e-04 0.000000000000000000e+00
 -7.701933849602937698e-03 2.519209519959986210e-04 0.000000000000000000e+00
 -7.676834706217050552e-03 2.501198614481836557e-04 0.000000000000000000e+00
 -7.653006352484226227e-03 2.484099823050200939e-04 0.000000000000000000e+00
 -7.630591746419668198e-03 2.468015300109982491e-04 0.000000000000000000e+00
 -7.609687279909849167e-03 2.453014312777668238e-04 0.000000000000000000e+00
 -7.590345572680234909e-03 2.439134987071156502e-04 0.000000000000000000e+00
 -7.572578731924295425e-03 2.426385908620432019e-04 0.000000000000000000e+00
 -7.556365337222814560e-03 2.414751215837895870e-04 0.000000000000000000e+00
[...]
<CellData>
 <DataArray Name="pos.x" type="Float32" NumberOfComponents="1" format="ascii">
 -8.120235059204766043e-03
 -8.110508889959554615e-03
 -8.099555931735150441e-03
 -8.087275308516777769e-03
 -8.073573492633896037e-03
 -8.058369482516612725e-03
 -8.041600741824552617e-03
 -8.023229662579388702e-03
 -8.003250168670886233e-03
 -7.981693927327193974e-03
 -7.958635511868851486e-03
 -7.934195793727054358e-03
 -7.908542869691283575e-03
 -7.881889977202972616e-03
 -7.854490121114542436e-03
 -7.826627505217021927e-03
 -7.798606276533227334e-03
 -7.770737473079322895e-03
 -7.743325336912188807e-03
 -7.716654252872147575e-03
 -7.690977476748795706e-03
 -7.666508546872428248e-03
 -7.643415890695836289e-03
 -7.621820722787684375e-03
 -7.601797959490113644e-03
 -7.583379603582758761e-03
 -7.566559904325634821e-03
 -7.551301569542027102e-03
 -7.537542371616241625e-03
 -7.525201613651428742e-03
 -7.514186071162513338e-03
 -7.504395171434299558e-03
 -8.119446271858427044e-03
 -8.109723382589117610e-03
 -8.098777999608095662e-03
 -8.086509742483009508e-03
 -8.072825531772312435e-03
 -8.057644733949030982e-03
 -8.040905062822545010e-03
 -8.022569001651528101e-03
 -8.002630364916689040e-03
 -7.981120470795216582e-03
 -7.958113272066346180e-03
 -7.933728728171513672e-03
 -7.908133728968629733e-03
 -7.881540026633861162e-03
 -7.854198900890521640e-03
 -7.826392650262420023e-03
 -7.798423413890293206e-03
 -7.770600208671939006e-03
 -7.743225335733150763e-03
 -7.716581408190282057e-03
 -7.690920156068548237e-03
 -7.666453896321315069e-03
 -7.643350176001887687e-03
 -7.621729684261233442e-03
 -7.601667160183943686e-03
 -7.583194753407128917e-03
 -7.566307147508111175e-03
 -7.550967727668500551e-03
 -7.537115138929114354e-03
 -7.524669704901894123e-03
 -7.513539324993962799e-03
 -7.503624613923616342e-03
 -8.117866436921583606e-03
 -8.108146164146517662e-03
 -8.097207610366249225e-03
 -8.084950883962223334e-03
 -8.071283347463962393e-03
 -8.056124729952787028e-03
 -8.039412991174331100e-03
 -8.021110703080487625e-03
 -8.001211570277716803e-03
 -7.979746563932703721e-03
 -7.956789021175128193e-03
 -7.932457997411752545e-03
 -7.906919186673022626e-03
 -7.880382869966083559e-03
 -7.853098618648112969e-03
 -7.825346844822830134e-03
 -7.797427699954410409e-03
 -7.769648200515798069e-03
 -7.742308726987636586e-03
 -7.715690139762336995e-03
 -7.690042660064962121e-03
 -7.665577397828037681e-03
 -7.642461031084324917e-03
 -7.620813731831655759e-03
 -7.600710067100579538e-03
 -7.582182335757284633e-03
 -7.565225655591712936e-03
 -7.549804086972447710e-03
 -7.535857143825670096e-03
 -7.523306165336321460e-03
 -7.512060169105039958e-03
 -7.502020951199728227e-03
 -8.115494020435546491e-03
 -8.105775728449813450e-03
 -8.094843289860018803e-03
 -8.082597295500492524e-03
 -8.068945543937196610e-03
 -8.053808121733714229e-03
 -8.037123230590541637e-03
 -8.018853528720998672e-03
 -7.998992610385349811e-03
 -7.977571101630210465e-03
 -7.954661728489933331e-03
 -7.930382649782389062e-03
 -7.904898374097392433e-03
 -7.878417724491951213e-03
 -7.851188579664401812e-03
 -7.823489482985669999e-03
 -7.795618617198907252e-03
 -7.767881017789132064e-03
 -7.740575163639487784e-03
 -7.713980180279236473e-03
 -7.688344796092854566e-03
 -7.663878927510785026e-03
 -7.640748394286364133e-03
 -7.619072859080448443e-03
 -7.598926721832047898e-03
 -7.580342432948409225e-03
 -7.563315544414115493e-03
 -7.547810789849608744e-03
 -7.533768548621608795e-03
 -7.521111170947885650e-03
 -7.509748787372014928e-03
 -7.499584369678825857e-03
 -8.112327564605207111e-03
 -8.102610645682932142e-03
 -8.091683640515526590e-03
 -8.079447616377600019e-03
 -8.065810802313107958e-03
 -8.050693637522431806e-03
 -8.034034561902880789e-03
 -8.015796317615699745e-03
 -7.995972388114884477e-03
 -7.974593056049436232e-03
 -7.951730440591031276e-03
 -7.927501810901831786e-03
 -7.902070499825717895e-03
 -7.875643884807156242e-03
 -7.848468166564129614e-03
 -7.820820036261192862e-03
 -7.792995725658710682e-03
 -7.765298307427554239e-03
 -7.738024376695297815e-03
 -7.711451340854742244e-03
 -7.685826450415335007e-03
 -7.661358440998043695e-03
 -7.638212284175654489e-03
 -7.616507140656576455e-03
 -7.596317248000678153e-03
 -7.577675210398706999e-03
 -7.560577014112081912e-03
 -7.544988064297926227e-03
 -7.530849602630657232e-03
 -7.518084986224212937e-03
 -7.506605453750434323e-03
 -7.496315147523042316e-03
 -8.108365687793538459e-03
 -8.098649562403022889e-03
 -8.087727341312220958e-03
 -8.075500562609472244e-03
 -8.061877880591063888e-03
 -8.046780082549116753e-03
 -8.030145843035033093e-03
 -8.011937985978195148e-03
 -7.992149883546907987e-03
 -7.970811476577783702e-03
 -7.947994281288188814e-03
 -7.923814683615863080e-03
 -7.898434849661245191e-03
 -7.872060722730991542e-03
 -7.844936839225305839e-03
 -7.817338053488330149e-03
 -7.789558662816577911e-03
 -7.761899794013762781e-03
 -7.734656175084673665e-03
 -7.708103510900407920e-03
 -7.682487588076182365e-03
 -7.658015973294296508e-03
 -7.634852799416429019e-03
 -7.613116732143744569e-03
 -7.592881851125432395e-03
 -7.574180916514479563e-03
 -7.557010349010953240e-03
 -7.541336223806874121e-03
 -7.527100642080560705e-03
 -7.514227964076745578e-03
 -7.502630532206583207e-03
 -7.492213654579010958e-03
 -8.103607084508742536e-03
 -8.093891201517164694e-03
 -8.082973147774957443e-03
 -8.070754926926212297e-03
 -8.057145613629839581e-03
 -8.042066339021661930e-03
 -8.025456008982075756e-03
 -8.007277527148115234e-03
 -7.987524153931812795e-03
 -7.966225489785249206e-03
 -7.943452451568138936e-03
 -7.919320547928231091e-03
 -7.893990786552649436e-03
 -7.867667687227479847e-03
 -7.840594134686851291e-03
 -7.813043160726852385e-03
 -7.785307143494034354e-03
 -7.757685279652590422e-03
 -7.730470445533076281e-03
 -7.703936657995155528e-03
 -7.678328252760670790e-03
 -7.653851638641804081e-03
 -7.630670118627452467e-03
 -7.608901869925117564e-03
 -7.588620818494285283e-03
 -7.569859882556757673e-03
 -7.552615917500915890e-03
 -7.536855667257725926e-03
 -7.522522090006963057e-03
 -7.509540545743619011e-03
 -7.497824476648558452e-03
 -7.487280352321404493e-03
 -8.098050525397776367e-03
 -8.088334362283436732e-03
 -8.077419891968520491e-03
 -8.065209578759720971e-03
 -8.051612913133263105e-03
 -8.036551366102095972e-03
 -8.019964071778682910e-03
 -8.001814011568117446e-03
 -7.982094333646662723e-03
 -7.960834299374391562e-03
 -7.938104229536896081e-03
 -7.914018760941653532e-03
 -7.888737750517633984e-03
 -7.862464304313322369e-03
 -7.835439667058278004e-03
 -7.807935061153938906e-03
 -7.780240959736775194e-03
 -7.752654643854483066e-03
 -7.725467152432713772e-03
 -7.698950827741540652e-03
 -7.673348566658555990e-03
 -7.648865630375922819e-03
 -7.625664500238601290e-03
 -7.603862871035880003e-03
 -7.583534519020737261e-03
 -7.564712522510463194e-03
 -7.547394171910574122e-03
 -7.531546878796595464e-03
 -7.517114456150985995e-03
 -7.504023260697331200e-03
 -7.492187830836567926e-03
 -7.481515793787743215e-03
 -8.091694857244511457e-03
 -8.081977920299106624e-03
 -8.071066482481778492e-03
 -8.058863464230381010e-03
 -8.045278767632444913e-03
 -8.030234199894946759e-03
 -8.013669120482654409e-03
 -7.995546586743580014e-03
 -7.975859634158425499e-03
 -7.954637186131686966e-03
 -7.931948970362397502e-03
 -7.907908756784058982e-03
 -7.882675258568080587e-03
 -7.856450176975601773e-03
 -7.829473127416424622e-03
 -7.802013534957258183e-03
 -7.774359980698133596e-03
 -7.746807843402544504e-03
 -7.719646337705190348e-03
 -7.693146143636170331e-03
 -7.667548730311284262e-03
 -7.643058220778787930e-03
 -7.619836282340012104e-03
 -7.598000133019451076e-03
 -7.577623403095283192e-03
 -7.558739332940201533e-03
 -7.541345648372170703e-03
 -7.525410427713915239e-03
 -7.510878336835355093e-03
 -7.497676726542564819e-03
 -7.485721228296189113e-03
 -7.474920623496122268e-03
 -8.084539002956097134e-03
 -8.074820827495757594e-03
 -8.063911904419674564e-03
 -8.051715606141231912e-03
 -8.038142242467927537e-03
 -8.023113953416701610e-03
 -8.006570321136163848e-03
 -7.988474477215337308e-03
 -7.968819343979617609e-03
 -7.947633507881404422e-03
 -7.924986106219229776e-03
 -7.900990046546516737e-03
 -7.875802904630921711e-03
 -7.849624985081200129e-03
 -7.822694283706207660e-03
 -7.795278439223534382e-03
 -7.767664152517603227e-03
 -7.740144912223312530e-03
 -7.713008120666067780e-03
 -7.686522806912158071e-03
 -7.660929022470016649e-03
 -7.636429760921281847e-03
 -7.613185882523711839e-03
 -7.591314133766506600e-03
 -7.570888002437634740e-03
 -7.551940892843361786e-03
 -7.534470966677137352e-03
 -7.518446968303436374e-03
 -7.503814414852302828e-03
 -7.490501648903490940e-03
 -7.478425392221528176e-03
 -7.467495577359956060e-03
 -8.076581961573740115e-03
 -8.066862112127958992e-03
 -8.055955219400447523e-03
 -8.043765103956851403e-03
 -8.030202479777700381e-03
 -8.015189816584401480e-03
 -7.998666916744459621e-03
 -7.980596984526740906e-03
 -7.960972828630143855e-03
 -7.939822699433558839e-03
 -7.917215146223208905e-03
 -7.893262218208801570e-03
 -7.868120359467071709e-03
 -7.841988485283486396e-03
 -7.815102980639854896e-03
 -7.787729707823817099e-03
 -7.760153498191256147e-03
 -7.732665961257577554e-03
 -7.705552697879802619e-03
 -7.679081096396488809e-03
 -7.653489799931323737e-03
 -7.628980680505020873e-03
 -7.605713797726297402e-03
 -7.583805431353866575e-03
 -7.563328929931815818e-03
 -7.544317863490381665e-03
 -7.526770830130554910e-03
 -7.510657239729321907e-03
 -7.495923459321746259e-03
 -7.482498821303538820e-03
 -7.470301135367107652e-03
 -7.459241482603972545e-03
 -8.067822808248546751e-03
 -8.058100878780028245e-03
 -8.047195565541617052e-03
 -8.035011133802153274e-03
 -8.021458698481347821e-03
 -8.006461056185559116e-03
 -7.989958227253885978e-03
 -7.971913487185011693e-03
 -7.952319530591110339e-03
 -7.931204272532303007e-03
 -7.908635676377782572e-03
 -7.884724936571513992e-03
 -7.859627370587107115e-03
 -7.833540510929324838e-03
 -7.806699139587868451e-03
 -7.779367351296499408e-03
 -7.751828117451787549e-03
 -7.724371178314074285e-03
 -7.697280343011676275e-03
 -7.670821368351504223e-03
 -7.645231497379202656e-03
 -7.620711487694874567e-03
 -7.597420604057050601e-03
 -7.575474663879694717e-03
 -7.554946879460821760e-03
 -7.535870988268627592e-03
 -7.518246025391873630e-03
 -7.502042065871408587e-03
 -7.487206325560633730e-03
 -7.473669125036135584e-03
 -7.461349359930398786e-03
 -7.450159257645177363e-03
 -8.058260694264737095e-03
 -8.048536308349164142e-03
 -8.037632157458072038e-03
 -8.025452948441634884e-03
 -8.011910194267723995e-03
 -7.996927015860983562e-03
 -7.980443649519533902e-03
 -7.962423440626529778e-03
 -7.942858969275219672e-03
 -7.921777815806012660e-03
 -7.899247359504644669e-03
 -7.875377943178853840e-03
 -7.850323762168631356e-03
 -7.824280971961417031e-03
 -7.797482758472163225e-03
 -7.770191456725790077e-03
 -7.742688186630151612e-03
 -7.715260827933716203e-03
 -7.688191406676474215e-03
 -7.661744056316364612e-03
 -7.636154627218595670e-03
 -7.611622768950165006e-03
 -7.588306956625225606e-03
 -7.566322549285683235e-03
 -7.545742625733972697e-03
 -7.526601092505410401e-03
 -7.508897422313468538e-03
 -7.492602355172657026e-03
 -7.477663954928315086e-03
 -7.464013529034781505e-03
 -7.451571057427680382e-03
 -7.440249912000539666e-03
 -8.047894847013157410e-03
 -8.038167658050574677e-03
 -8.027264286248701058e-03
 -8.015089877280780553e-03
 -8.001556339569769818e-03
 -7.986587116094078648e-03
 -7.970122657278280037e-03
 -7.952126377189731171e-03
 -7.932590740961878439e-03
 -7.911542994710614798e-03
 -7.889049935185790327e-03
 -7.865221056246096687e-03
 -7.840209434968707647e-03
 -7.814209854821558068e-03
 -7.787453911655582359e-03
 -7.760202187619353979e-03
 -7.732733958522142181e-03
 -7.705335251239759688e-03
 -7.678286316284449464e-03
 -7.651849670940352385e-03
 -7.626259779405732478e-03
 -7.601715188846294713e-03
 -7.578373589361212838e-03
 -7.556349885176607759e-03
 -7.535717024110406316e-03
 -7.516509083298515866e-03
 -7.498725973763912742e-03
 -7.482339100473464795e-03
 -7.467297374677761383e-03
 -7.453533089720449853e-03
 -7.440967308568183745e-03
 -7.429514546153050646e-03
 -8.036724570008967408e-03
 -8.026994261414491585e-03
 -8.016091319501102153e-03
 -8.003921326344915280e-03
 -7.990396583560658433e-03
 -7.975440854174417268e-03
 -7.958994801125921295e-03
 -7.941021906073405037e-03
 -7.921514518769856225e-03
 -7.900499551481050126e-03
 -7.878043219692661137e-03
 -7.854254170585198494e-03
 -7.829284366235051557e-03
 -7.803327222344748175e-03
 -7.776612749825404479e-03
 -7.749399783782751072e-03
 -7.721965762252030498e-03
 -7.694594865786515310e-03
 -7.667565575878166652e-03
 -7.641138799816047170e-03
 -7.615547621266975653e-03
 -7.590989489893424681e-03
 -7.567621314828932959e-03
 -7.545557548633938239e-03
 -7.524871010407097743e-03
 -7.505595949329785244e-03
 -7.487732715457454113e-03
 -7.471253378838838520e-03
 -7.456107697791749742e-03
 -7.442228950854466729e-03
 -7.429539283102273156e-03
 -7.417954351428887767e-03
 -8.024749242880026279e-03
 -8.015015528271489387e-03
 -8.004112701276717978e-03
 -7.991946778279091987e-03
 -7.978430452135483464e-03
 -7.963487804187536004e-03
 -7.947059708480063919e-03
 -7.929109713301508294e-03
 -7.909630052607363737e-03
 -7.888647305068975657e-03
 -7.866227105926210453e-03
 -7.842477257519216496e-03
 -7.817548609615721303e-03
 -7.791633213660374181e-03
 -7.764959499876941153e-03
 -7.737784561186266015e-03
 -7.710384003125536970e-03
 -7.683040165410764434e-03
 -7.656029765968247990e-03
 -7.629612107304622678e-03
 -7.604018897321003674e-03
 -7.579446492349756551e-03
 -7.556051024036658341e-03
 -7.533946496024187568e-03
 -7.513205600710564855e-03
 -7.493862760672204484e-03
 -7.475918765761912013e-03
 -7.459346351381338468e-03
 -7.444096122805804461e-03
 -7.430102343377949399e-03
 -7.417288239682074714e-03
 -7.405570609857671516e-03
 -8.011968321381991720e-03
 -8.002230944773902274e-03
 -7.991327952104854485e-03
 -7.979165792331719201e-03
 -7.965657547897424598e-03
 -7.950727616990524091e-03
 -7.934317083563510037e-03
 -7.916389561687667970e-03
 -7.896937169123185649e-03
 -7.875986151091385681e-03
 -7.853601563346121472e-03
 -7.829890364809114281e-03
 -7.805002295064251798e-03
 -7.779128044082218515e-03
 -7.752494464795335431e-03
 -7.725356911834118691e-03
 -7.697989162488794689e-03
 -7.670671720067996982e-03
 -7.643679543365252543e-03
 -7.617270334356274208e-03
 -7.591674429089505759e-03
 -7.567087094026029269e-03
 -7.543663686238745447e-03
 -7.521517762795724288e-03
 -7.500721891172646219e-03
 -7.481310668596635217e-03
 -7.463285325508743281e-03
 -7.446619263074080557e-03
 -7.431263933636646744e-03
 -7.417154585233503607e-03
 -7.404215525692744992e-03
 -7.392364694031828762e-03
 -7.998381337381345671e-03
 -7.988640073365799524e-03
 -7.977736668994008656e-03
 -7.965578004349230246e-03
 -7.952077550134903014e-03
 -7.937160020188708739e-03
 -7.920766707370203302e-03
 -7.902861290794547036e-03
 -7.883435771662119021e-03
 -7.862516061769244183e-03
 -7.840166637894541851e-03
 -7.816493616570049235e-03
 -7.791645628745327325e-03
 -7.765812005000418891e-03
 -7.739218023531101512e-03
 -7.712117303628302292e-03
 -7.684781797574142918e-03
 -7.657490175672523706e-03
 -7.630515641004966161e-03
 -7.604114298326329277e-03
 -7.578515114909410190e-03
 -7.553912270087808321e-03
 -7.530460348732398966e-03
 -7.508272463274857575e-03
 -7.487421057811527447e-03
 -7.467940905364876987e-03
 -7.449833677787656185e-03
 -7.433073442551131269e-03
 -7.417612499390121780e-03
 -7.403387081199892285e-03
 -7.390322577094044811e-03
 -7.378338066936547361e-03
 </DataArray>
 <DataArray Name="pos.y" type="Float32" NumberOfComponents="1" format="ascii">
 4.707073466565661282e-05
 4.694963241970095215e-05
 4.681397243175485781e-05
 4.666251739337146115e-05
 4.649412096389166652e-05
 4.630779051669567809e-05
 4.610275913849041845e-05
 4.587856401122695382e-05
 4.563512653485791504e-05
 4.537282774772284806e-05
 4.509257109688448559e-05
 4.479582381906156648e-05
 4.448462853129748682e-05
 4.416157840872979301e-05
 4.382975260201691086e-05
 4.349261302572198488e-05
 4.315386866840462143e-05
 4.281731820822836260e-05
 4.248668499847794950e-05
 4.216545967903760541e-05
 4.185676449650908078e-05
 4.156325014658028365e-05
 4.128703131875378299e-05
 4.102966209358324993e-05
 4.079214784576378752e-05
 4.057498701199717281e-05
 4.037823428936609114e-05
 4.020157648189474241e-05
 4.004441300308028061e-05
 3.990593454931594337e-05
 3.978519526752510339e-05
 3.968117551994313169e-05
 1.410926589788887877e-04
 1.407372092093318969e-04
 1.403377802053394705e-04
 1.398907213934802885e-04
 1.393926485013715364e-04
 1.388406299532750560e-04
 1.382324006946788401e-04
 1.375665949101364974e-04
 1.368429838378271265e-04
 1.360626995281753477e-04
 1.352284209270776310e-04
 1.343444963097739045e-04
 1.334169770987013448e-04
 1.324535433817339910e-04
 1.314633111791728003e-04
 1.304565248162654098e-04
 1.294441526716633595e-04
 1.284374183406535041e-04
 1.274473090000564869e-04
 1.264841063059167644e-04
 1.255569816718531291e-04
 1.246736880678030960e-04
 1.238403667170685568e-04
 1.230614721300632550e-04
 1.223398055573642312e-04
 1.216766371605649286e-04
 1.210718918740486200e-04
 1.205243728976082996e-04
 1.200319991065144297e-04
 1.195920371412919708e-04
 1.192013143092706941e-04
 1.188564037127911585e-04
 2.348719252293460138e-04
 2.342859118435868405e-04
 2.336271596302292328e-04
 2.328896659149915372e-04
 2.320678646707959817e-04
 2.311569330703830503e-04
 2.301531431283033752e-04
 2.290542443959575386e-04
 2.278598550202929176e-04
 2.265718296718320873e-04
 2.251945655016822237e-04
 2.237352034145399305e-04
 2.222036836025505159e-04
 2.206126229700775909e-04
 2.189769980833712799e-04
 2.173136391601978700e-04
 2.156405651390571492e-04
 2.139762125048653746e-04
 2.123386265776112600e-04
 2.107446897977262226e-04
 2.092094558147664606e-04
 2.077456422244313339e-04
 2.063633121724776898e-04
 2.050697504825422927e-04
 2.038695180074093151e-04
 2.027646518198796726e-04
 2.017549701063064093e-04
 2.008384389298785585e-04
 2.000115618945990119e-04
 1.992697610999197072e-04
 1.986077266119876236e-04
 1.980197203644482300e-04
 3.284142062722681093e-04
 3.276011824607555530e-04
 3.266872889857970279e-04
 3.256642293645424730e-04
 3.245243093407533964e-04
 3.232608602578183952e-04
 3.218687246884160491e-04
 3.203447849408097461e-04
 3.186885031119870981e-04
 3.169024292023188503e-04
 3.149926236602980964e-04
 3.129689353812192061e-04
 3.108450784712598952e-04
 3.086384630794872133e-04
 3.063697576975257277e-04
 3.040621905382569559e-04
 3.017406314642788641e-04
 2.994305271936882791e-04
 2.971567846397375409e-04
 2.949427052875741345e-04
 2.928090656016798447e-04
 2.907734164209355241e-04
 2.888496430595403354e-04
 2.870477939216837843e-04
 2.853741551275159444e-04
 2.838315264439995726e-04
 2.824196417353152860e-04
 2.811356748105006752e-04
 2.799747768852044421e-04
 2.789306020397440541e-04
 2.779957892613374492e-04
 2.771623816568862843e-04
 4.217249486470781039e-04
 4.206882408360862707e-04
 4.195231289967706100e-04
 4.182190783406678305e-04
 4.167663173332344516e-04
 4.151563746993482845e-04
 4.133826953837865846e-04
 4.114413108897707616e-04
 4.093315242693585862e-04
 4.070565546198042796e-04
 4.046240730800266432e-04
 4.020465555384206916e-04
 3.993413801657193772e-04
 3.965306130918742249e-04
 3.936404535635581363e-04
 3.907003482302480327e-04
 3.877418271393157936e-04
 3.847971536542367228e-04
 3.818979085699157746e-04
 3.790736388991564065e-04
 3.763506917751795796e-04
 3.737513259713069334e-04
 3.712931539290149040e-04
 3.689889241909000768e-04
 3.668466157038577347e-04
 3.648697873098663688e-04
 3.630581104304837466e-04
 3.614080099943092197e-04
 3.599133454315251346e-04
 3.585660764588536210e-04
 3.573568738550344202e-04
 3.562756506520099991e-04
 5.148093725614600593e-04
 5.135520843738251113e-04
 5.121394228261867123e-04
 5.105586676214605426e-04