<VTKFile type="UnstructuredGrid" byte_order="BigEndian">
<UnstructuredGrid><Piece NumberOfPoints="2680" NumberOfCells="2527">
<Points>
 <DataArray type="Float32" NumberOfComponents="3" format="ascii">
 -9.772364050149917603e-03 8.154362440109252930e-03 0.000000000000000000e+00
 -9.749381802976131439e-03 8.128373883664608002e-03 0.000000000000000000e+00
 -9.726403281092643738e-03 8.102389052510261536e-03 0.000000000000000000e+00
 -9.703430347144603729e-03 8.076410740613937378e-03 0.000000000000000000e+00
 -9.680467657744884491e-03 8.050443604588508606e-03 0.000000000000000000e+00
 -9.657516144216060638e-03 8.024489507079124451e-03 0.000000000000000000e+00
 -9.634581394493579865e-03 7.998554036021232605e-03 0.000000000000000000e+00
 -9.611664339900016785e-03 7.972638122737407684e-03 0.000000000000000000e+00
 -9.588768705725669861e-03 7.946747355163097382e-03 0.000000000000000000e+00
 -9.565897285938262939e-03 7.920884527266025543e-03 0.000000000000000000e+00
 -9.543054737150669098e-03 7.895052433013916016e-03 0.000000000000000000e+00
 -9.520241990685462952e-03 7.869255729019641876e-03 0.000000000000000000e+00
 -9.497462771832942963e-03 7.843496277928352356e-03 0.000000000000000000e+00
 -9.474720805883407593e-03 7.817778736352920532e-03 0.000000000000000000e+00
 -9.452017955482006073e-03 7.792105898261070251e-03 0.000000000000000000e+00
 -9.429357014596462250e-03 7.766481023281812668e-03 0.000000000000000000e+00
 -9.406742639839649200e-03 7.740907371044158936e-03 0.000000000000000000e+00
 -9.384175762534141541e-03 7.715388666838407516e-03 0.000000000000000000e+00
 -9.361661039292812347e-03 7.689927704632282257e-03 0.000000000000000000e+00
 -9.339199401438236237e-03 7.664527744054794312e-03 0.000000000000000000e+00
 -9.316794574260711670e-03 7.639192044734954834e-03 0.000000000000000000e+00
 -9.294450283050537109e-03 7.613923866301774979e-03 0.000000000000000000e+00
 -9.272167459130287170e-03 7.588726468384265900e-03 0.000000000000000000e+00
 -9.249949827790260315e-03 7.563602179288864136e-03 0.000000000000000000e+00
 -9.227801114320755005e-03 7.538554724305868149e-03 0.000000000000000000e+00
 -9.205721318721771240e-03 7.513587363064289093e-03 0.000000000000000000e+00
 -9.183715097606182098e-03 7.488701958209276199e-03 0.000000000000000000e+00
 -9.161784313619136810e-03 7.463902235031127930e-03 0.000000000000000000e+00
 -9.139932692050933838e-03 7.439190987497568130e-03 0.000000000000000000e+00
 -9.118160232901573181e-03 7.414570543915033340e-03 0.000000000000000000e+00
 -9.096471592783927917e-03 7.390044163912534714e-03 0.000000000000000000e+00
 -9.074868634343147278e-03 7.365614641457796097e-03 0.000000000000000000e+00
 -9.053353220224380493e-03 7.341284304857254028e-03 0.000000000000000000e+00
 -9.031927213072776794e-03 7.317055948078632355e-03 0.000000000000000000e+00
 -9.010594338178634644e-03 7.292932365089654922e-03 0.000000000000000000e+00
 -8.989356458187103271e-03 7.268915418535470963e-03 0.000000000000000000e+00
 -8.968215435743331909e-03 7.245008368045091629e-03 0.000000000000000000e+00
 -8.947173133492469788e-03 7.221213076263666153e-03 0.000000000000000000e+00
 -8.926231414079666138e-03 7.197532337158918381e-03 0.000000000000000000e+00
 -8.905394002795219421e-03 7.173968013375997543e-03 0.000000000000000000e+00
 -8.884660899639129639e-03 7.150522433221340179e-03 0.000000000000000000e+00
 -8.864034898579120636e-03 7.127198390662670135e-03 0.000000000000000000e+00
 -8.843517862260341644e-03 7.103997282683849335e-03 0.000000000000000000e+00
 -8.823111653327941895e-03 7.080921437591314316e-03 0.000000000000000000e+00
 -8.802818134427070618e-03 7.057973183691501617e-03 0.000000000000000000e+00
 -8.782639168202877045e-03 7.035154383629560471e-03 0.000000000000000000e+00
 -8.762576617300510406e-03 7.012466434389352798e-03 0.000000000000000000e+00
 -8.742631413042545319e-03 6.989911664277315140e-03 0.000000000000000000e+00
 -8.722805418074131012e-03 6.967491935938596725e-03 0.000000000000000000e+00
 -8.703100495040416718e-03 6.945209112018346786e-03 0.000000000000000000e+00
 -8.683517575263977051e-03 6.923064123839139938e-03 0.000000000000000000e+00
 -8.664058521389961243e-03 6.901059765368700027e-03 0.000000000000000000e+00
 -8.644725196063518524e-03 6.879196502268314362e-03 0.000000000000000000e+00
 -8.625517599284648895e-03 6.857476197183132172e-03 0.000000000000000000e+00
 -8.606437593698501587e-03 6.835900247097015381e-03 0.000000000000000000e+00
 -8.587487041950225830e-03 6.814470514655113220e-03 0.000000000000000000e+00
 -8.568666875362396240e-03 6.793187931180000305e-03 0.000000000000000000e+00
 -8.549978025257587433e-03 6.772053893655538559e-03 0.000000000000000000e+00
 -8.531421422958374023e-03 6.751069333404302597e-03 0.000000000000000000e+00
 -8.512997999787330627e-03 6.730235647410154343e-03 0.000000000000000000e+00
 -8.494708687067031860e-03 6.709554232656955719e-03 0.000000000000000000e+00
 -8.476555347442626953e-03 6.689025554805994034e-03 0.000000000000000000e+00
 -8.458537980914115906e-03 6.668651010841131210e-03 0.000000000000000000e+00
 -8.440657518804073334e-03 6.648431066423654556e-03 0.000000000000000000e+00
 -8.422914892435073853e-03 6.628367118537425995e-03 0.000000000000000000e+00
 -8.405310101807117462e-03 6.608459632843732834e-03 0.000000000000000000e+00
 -8.387845009565353394e-03 6.588709540665149689e-03 0.000000000000000000e+00
 -8.370519615709781647e-03 6.569117307662963867e-03 0.000000000000000000e+00
 -8.353334851562976837e-03 6.549684330821037292e-03 0.000000000000000000e+00
 -8.336290717124938965e-03 6.530410144478082657e-03 0.000000000000000000e+00
 -8.319388143718242645e-03 6.511296145617961884e-03 0.000000000000000000e+00
 -8.302627131342887878e-03 6.492342334240674973e-03 0.000000000000000000e+00
 -8.286008611321449280e-03 6.473549641668796539e-03 0.000000000000000000e+00
 -8.269532583653926849e-03 6.454917602241039276e-03 0.000000000000000000e+00
 -8.253199048340320587e-03 6.436447612941265106e-03 0.000000000000000000e+00
 -8.237008936703205109e-03 6.418139208108186722e-03 0.000000000000000000e+00
 -8.220962248742580414e-03 6.399993319064378738e-03 0.000000000000000000e+00
 -8.205058984458446503e-03 6.382009014487266541e-03 0.000000000000000000e+00
 -8.189299143850803375e-03 6.364187691360712051e-03 0.000000000000000000e+00
 -8.173682726919651031e-03 6.346528884023427963e-03 0.000000000000000000e+00
 -8.158210664987564087e-03 6.329032592475414276e-03 0.000000000000000000e+00
 -8.142882958054542542e-03 6.311698816716670990e-03 0.000000000000000000e+00
 -8.127697743475437164e-03 6.294528022408485413e-03 0.000000000000000000e+00
 -8.112656883895397186e-03 6.277519278228282928e-03 0.000000000000000000e+00
 -8.097760379314422607e-03 6.260673049837350845e-03 0.000000000000000000e+00
 -8.083006367087364197e-03 6.243989337235689163e-03 0.000000000000000000e+00
 -8.068396709859371185e-03 6.227467674762010574e-03 0.000000000000000000e+00
 -8.053929544985294342e-03 6.211108062416315079e-03 0.000000000000000000e+00
 -8.039604872465133667e-03 6.194909568876028061e-03 0.000000000000000000e+00
 -8.025423623621463776e-03 6.178872659802436829e-03 0.000000000000000000e+00
 -8.011383935809135437e-03 6.162996403872966766e-03 0.000000000000000000e+00
 -7.997486740350723267e-03 6.147281266748905182e-03 0.000000000000000000e+00
 -7.983731105923652649e-03 6.131725851446390152e-03 0.000000000000000000e+00
 -7.970117032527923584e-03 6.116330157965421677e-03 0.000000000000000000e+00
 -7.956642657518386841e-03 6.101093720644712448e-03 0.000000000000000000e+00
 -7.943309843540191650e-03 6.086016073822975159e-03 0.000000000000000000e+00
 -7.930116727948188782e-03 6.071096751838922501e-03 0.000000000000000000e+00
 -7.917062379419803619e-03 6.056334823369979858e-03 0.000000000000000000e+00
 -7.904146797955036163e-03 6.041729822754859924e-03 0.000000000000000000e+00
 -7.891369983553886414e-03 6.027281749993562698e-03 0.000000000000000000e+00
 -7.878731004893779755e-03 6.012988742440938950e-03 0.000000000000000000e+00
 -7.866228930652141571e-03 5.998851265758275986e-03 0.000000000000000000e+00
 -7.853863760828971863e-03 5.984867922961711884e-03 0.000000000000000000e+00
 -7.841633632779121399e-03 5.971037782728672028e-03 0.000000000000000000e+00
 -7.829538546502590179e-03 5.957360845059156418e-03 0.000000000000000000e+00
 -7.817578501999378204e-03 5.943836178630590439e-03 0.000000000000000000e+00
 -7.805752567946910858e-03 5.930462386459112167e-03 0.000000000000000000e+00
 -7.794058881700038910e-03 5.917239468544721603e-03 0.000000000000000000e+00
 -7.782497908920049667e-03 5.904165562242269516e-03 0.000000000000000000e+00
 -7.771068252623081207e-03 5.891240667551755905e-03 0.000000000000000000e+00
 -7.759769447147846222e-03 5.878463853150606155e-03 0.000000000000000000e+00
 -7.748600561171770096e-03 5.865833722054958344e-03 0.000000000000000000e+00
 -7.737560663372278214e-03 5.853349342942237854e-03 0.000000000000000000e+00
 -7.726649288088083267e-03 5.841010715812444687e-03 0.000000000000000000e+00
 -7.715865503996610641e-03 5.828815512359142303e-03 0.000000000000000000e+00
 -7.705207914113998413e-03 5.816764198243618011e-03 0.000000000000000000e+00
 -7.694676052778959274e-03 5.804854445159435272e-03 0.000000000000000000e+00
 -7.684269454330205917e-03 5.793086253106594086e-03 0.000000000000000000e+00
 -7.673986721783876419e-03 5.781458225101232529e-03 0.000000000000000000e+00
 -7.663826923817396164e-03 5.769968964159488678e-03 0.000000000000000000e+00
 -7.653789129108190536e-03 5.758618004620075226e-03 0.000000000000000000e+00
 -7.643872871994972229e-03 5.747404415160417557e-03 0.000000000000000000e+00
 -7.634076755493879318e-03 5.736326798796653748e-03 0.000000000000000000e+00
 -7.624399848282337189e-03 5.725383758544921875e-03 0.000000000000000000e+00
 -7.614841684699058533e-03 5.714575294405221939e-03 0.000000000000000000e+00
 -7.605400402098894119e-03 5.703899078071117401e-03 0.000000000000000000e+00
 -7.596076000481843948e-03 5.693354643881320953e-03 0.000000000000000000e+00
[...]
<CellData>
 <DataArray Name="pos.x" type="Float32" NumberOfComponents="1" format="ascii">
 -9.733275431071769859e-03
 -9.710346343427999488e-03
 -9.687421887719977268e-03
 -9.664505149090778235e-03
 -9.641599208419943459e-03
 -9.618707140620822924e-03
 -9.595832012955763518e-03
 -9.572976883344653035e-03
 -9.550144798700734017e-03
 -9.527338793268674486e-03
 -9.504561886984548222e-03
 -9.481817083846617172e-03
 -9.459107370307603610e-03
 -9.436435713695717070e-03
 -9.413805060641149136e-03
 -9.391218335543528514e-03
 -9.368678439058681848e-03
 -9.346188246608643294e-03
 -9.323750606931323348e-03
 -9.301368340650819147e-03
 -9.279044238883992629e-03
 -9.256781061888609205e-03
 -9.234581537733290574e-03
 -9.212448361007622918e-03
 -9.190384191578672424e-03
 -9.168391653376416900e-03
 -9.146473333221855073e-03
 -9.124631779698086712e-03
 -9.102869502057516632e-03
 -9.081188969181488990e-03
 -9.059592608569096150e-03
 -9.038082805388791482e-03
 -9.016661901549535146e-03
 -8.995332194844479073e-03
 -8.974095938114915252e-03
 -8.952955338483281622e-03
 -8.931912556613380572e-03
 -8.910969706023591508e-03
 -8.890128852453476477e-03
 -8.869392013265876493e-03
 -8.848761156903204098e-03
 -8.828238202383551295e-03
 -8.807825018856060839e-03
 -8.787523425179837727e-03
 -8.767335189574412824e-03
 -8.747262029296752964e-03
 -8.727305610372756983e-03
 -8.707467547369058050e-03
 -8.687749403207033552e-03
 -8.668152689031529898e-03
 -8.648678864108780978e-03
 -8.629329335767455325e-03
 -8.610105459397249250e-03
 -8.591008538465567945e-03
 -8.572039824589105378e-03
 -8.553200517640670297e-03
 -8.534491765887259815e-03
 -8.515914666179539780e-03
 -8.497470264162886033e-03
 -8.479159554533577045e-03
 -8.460983481317300298e-03
 -8.442942938198179023e-03
 -8.425038768861465091e-03
 -8.407271767380120400e-03
 -8.389642678627079117e-03
 -8.372152198708933749e-03
 -8.354800975442404701e-03
 -8.337589608839500802e-03
 -8.320518651635293306e-03
 -8.303588609825933442e-03
 -8.286799943232255397e-03
 -8.270153066098510919e-03
 -8.253648347687271916e-03
 -8.237286112916165914e-03
 -8.221066643006102320e-03
 -8.204990176134697652e-03
 -8.189056908128308776e-03
 -8.173266993146728263e-03
 -8.157620544399113438e-03
 -8.142117634861672712e-03
 -8.126758298012072904e-03
 -8.111542528571828031e-03
 -8.096470283266907902e-03
 -8.081541481581256889e-03
 -8.066756006529611500e-03
 -8.052113705440511193e-03
 -8.037614390730914854e-03
 -8.023257840702248053e-03
 -8.009043800321127490e-03
 -7.994971982029575736e-03
 -7.981042066524500142e-03
 -7.967253703573037166e-03
 -7.953606512800704895e-03
 -7.940100084496073615e-03
 -7.926733980406410612e-03
 -7.913507734537248914e-03
 -7.900420853947355548e-03
 -7.887472819536662030e-03
 -7.874663086839102377e-03
 -7.861991086801361703e-03
 -7.849456226572593467e-03
 -7.837057890264667245e-03
 -7.824795439731264263e-03
 -7.812668215328512009e-03
 -7.800675536663542568e-03
 -7.788816703348833657e-03
 -7.777090995745436150e-03
 -7.765497675681650065e-03
 -7.754035987194172162e-03
 -7.742705157231540188e-03
 -7.731504396363242729e-03
 -7.720432899474573112e-03
 -7.709489846458751107e-03
 -7.698674402884447127e-03
 -7.687985720672667854e-03
 -7.677422938742312769e-03
 -7.666985183661893279e-03
 -7.656671570283732006e-03
 -7.646481202362804576e-03
 -7.636413173173586463e-03
 -7.626466566107925442e-03
 -7.616640455265498086e-03
 -7.606933906028383145e-03
 -7.597345975636445037e-03
 -7.587875713728695938e-03
 -7.578522162896480889e-03
 -7.569284359209731312e-03
 -7.560161332739293721e-03
 -7.551152108058675066e-03
 -7.542255704749522074e-03
 -7.533471137869942810e-03
 -7.524797418448600159e-03
 -7.516233553923469361e-03
 -9.677586328744458913e-03
 -9.654761087306510531e-03
 -9.631940467458025706e-03
 -9.609127547426446481e-03
 -9.586325401173770994e-03
 -9.563537096699192483e-03
 -9.540765694341171027e-03
 -9.518014245107418725e-03
 -9.495285788987908870e-03
 -9.472583353307926016e-03
 -9.449909951082418810e-03
 -9.427268579383352859e-03
 -9.404662217747120079e-03
 -9.382093826570207448e-03
 -9.359566345562633782e-03
 -9.337082692196903982e-03
 -9.314645760204017660e-03
 -9.292258418078113216e-03
 -9.269923507634470275e-03
 -9.247643842572511597e-03
 -9.225422207088787574e-03
 -9.203261354518318255e-03
 -9.181164006013625700e-03
 -9.159132849250257308e-03
 -9.137170537186959859e-03
 -9.115279686848975702e-03
 -9.093462878159555562e-03
 -9.071722652812478499e-03
 -9.050061513177103112e-03
 -9.028481921265572169e-03
 -9.006986297715083301e-03
 -8.985577020843899324e-03
 -8.964256425728664435e-03
 -8.943026803341620409e-03
 -8.921890399726501927e-03
 -8.900849415218041114e-03
 -8.879906003717770793e-03
 -8.859062272004281091e-03
 -8.838320279101854679e-03
 -8.817682035679872549e-03
 -8.797149503521176778e-03
 -8.776724595011413041e-03
 -8.756409172696688267e-03
 -8.736205048872697915e-03
 -8.716113985229411235e-03
 -8.696137692534140762e-03
 -8.676277830359067564e-03
 -8.656536006869228542e-03
 -8.636913778622945168e-03
 -8.617412650453418199e-03
 -8.598034075364276510e-03
 -8.578779454474173491e-03
 -8.559650137020771710e-03
 -8.540647420371210233e-03
 -8.521772550108139971e-03
 -8.503026720128981086e-03
 -8.484411072791882627e-03
 -8.465926699106247205e-03
 -8.447574638942854583e-03
 -8.429355881296724320e-03
 -8.411271364569587738e-03
 -8.393321976894232636e-03
 -8.375508556485534994e-03
 -8.357831892025453097e-03
 -8.340292723082958978e-03
 -8.322891740541583580e-03
 -8.305629587084141854e-03
 -8.288506857682289078e-03
 -8.271524100115510217e-03
 -8.254681815522411578e-03
 -8.237980458962939484e-03
 -8.221420440013456343e-03
 -8.205002123372839157e-03
 -8.188725829491583924e-03
 -8.172591835225883131e-03
 -8.156600374499329079e-03
 -8.140751638979577473e-03
 -8.125045778782794340e-03
 -8.109482903181652186e-03
 -8.094063081319080241e-03
 -8.078786342959463906e-03
 -8.063652679216748095e-03
 -8.048662043321401852e-03
 -8.033814351378754451e-03
 -8.019109483141148575e-03
 -8.004547282785622053e-03
 -7.990127559694987919e-03
 -7.975850089253725544e-03
 -7.961714613630075515e-03
 -7.947720842581450923e-03
 -7.933868454241481405e-03
 -7.920157095932144758e-03
 -7.906586384948241855e-03
 -7.893155909371125933e-03
 -7.879865228855368470e-03
 -7.866713875436373571e-03
 -7.853701354314526761e-03
 -7.840827144653436664e-03
 -7.828090700369071120e-03
 -7.815491450908450266e-03
 -7.803028802031156813e-03
 -7.790702136582495357e-03
 -7.778510815264496302e-03
 -7.766454177393100969e-03
 -7.754531541652377735e-03
 -7.742742206845848983e-03
 -7.731085452632344319e-03
 -7.719560540260570099e-03
 -7.708166713288587719e-03
 -7.696903198297859634e-03
 -7.685769205602530942e-03
 -7.674763929939044417e-03
 -7.663886551155749474e-03
 -7.653136234884179434e-03
 -7.642512133207379765e-03
 -7.632013385316383826e-03
 -7.621639118146578823e-03
 -7.611388447015540216e-03
 -7.601260476247330942e-03
 -7.591254299778468946e-03
 -7.581369001757444145e-03
 -7.571603657135016208e-03
 -7.561957332237850306e-03
 -7.552429085336880184e-03
 -7.543017967195626491e-03
 -7.533723021611932712e-03
 -7.524543285950702209e-03
 -7.515477791658778037e-03
 -7.506525564771108355e-03
 -7.497685626406470558e-03
 -7.488956993245419677e-03
 -7.480338678004849751e-03
 -7.471829689896404038e-03
 -9.620885210087252309e-03
 -9.598166727625251707e-03
 -9.575452855706130875e-03
 -9.552746665176170202e-03
 -9.530051222615989331e-03
 -9.507369588642667485e-03
 -9.484704816216733142e-03
 -9.462059948962001088e-03
 -9.439438019494121243e-03
 -9.416842047757124565e-03
 -9.394275039392321544e-03
 -9.371739984098032689e-03
 -9.349239854035082745e-03
 -9.326777602233620248e-03
 -9.304356161036498110e-03
 -9.281978440552922024e-03
 -9.259647327152408652e-03
 -9.237365681980892751e-03
 -9.215136339496063714e-03
 -9.192962106059561142e-03
 -9.170845758529097558e-03
 -9.148790042911542769e-03
 -9.126797673037126760e-03
 -9.104871329271523733e-03
 -9.083013657270915669e-03
 -9.061227266772395664e-03
 -9.039514730422587227e-03
 -9.017878582651331701e-03
 -8.996321318584830223e-03
 -8.974845392998091059e-03
 -8.953453219321031928e-03
 -8.932147168676676449e-03
 -8.910929568971926590e-03
 -8.889802704030013575e-03
 -8.868768812768504373e-03
 -8.847830088428348949e-03
 -8.826988677840574490e-03
 -8.806246680745602462e-03
 -8.785606149159075340e-03
 -8.765069086781478169e-03
 -8.744637448456363607e-03
 -8.724313139672878331e-03
 -8.704098016119809003e-03
 -8.683993883279884224e-03
 -8.664002496072001694e-03
 -8.644125558539684021e-03
 -8.624364723588157089e-03
 -8.604721592754034296e-03
 -8.585197716034966703e-03
 -8.565794591752183551e-03
 -8.546513666455597680e-03
 -8.527356334878893537e-03
 -8.508323939927755347e-03
 -8.489417772713373292e-03
 -8.470639072625251592e-03
 -8.451989027436698776e-03
 -8.433468773465378071e-03
 -8.415079395739988311e-03
 -8.396821928242873684e-03
 -8.378697354151466020e-03
 -8.360706606134572089e-03
 -8.342850566679835614e-03
 -8.325130068440371456e-03
 -8.307545894627451494e-03
 -8.290098779424315972e-03
 -8.272789408431955802e-03
 -8.255618419141295614e-03
 -8.238586401421891386e-03
 -8.221693898063858058e-03
 -8.204941405306139662e-03
 -8.188329373418429258e-03
 -8.171858207283590192e-03
 -8.155528267019740082e-03
 -8.139339868604947292e-03
 -8.123293284526862321e-03
 -8.107388744450992266e-03
 -8.091626435906029355e-03
 -8.076006504973235259e-03
 -8.060529057007555231e-03
 -8.045194157357467638e-03
 -8.030001832092745553e-03
 -8.014952068767943263e-03
 -8.000044817161313868e-03
 -7.985279990048792589e-03
 -7.970657463969922293e-03
 -7.956177080014979058e-03
 -7.941838644597187802e-03
 -7.927641930250967431e-03
 -7.913586676420574298e-03
 -7.899672590257316926e-03
 -7.885899347417329314e-03
 -7.872266592858010240e-03
 -7.858773941638932947e-03
 -7.845420979726029989e-03
 -7.832207264783288062e-03
 -7.819132326970004362e-03
 -7.806195669743771007e-03
 -7.793396770635925910e-03
 -7.780735082057365672e-03
 -7.768210032065063497e-03
 -7.755821025154493488e-03
 -7.743567443023817963e-03
 -7.731448645343372630e-03
 -7.719463970515601237e-03
 -7.707612736431904144e-03
 -7.695894241215993359e-03
 -7.684307763960496022e-03
 -7.672852565464239639e-03
 -7.661527888945493178e-03
 -7.650332960761192097e-03
 -7.639266991105890525e-03
 -7.628329174710286702e-03
 -7.617518691522940678e-03
 -7.606834707380137790e-03
 -7.596276374679662192e-03
 -7.585842833023949058e-03
 -7.575533209866392240e-03
 -7.565346621143868681e-03
 -7.555282171895229791e-03
 -7.545338956870264839e-03
 -7.535516061130246614e-03
 -7.525812560625538827e-03
 -7.516227522782265719e-03
 -7.506760007055690576e-03
 -7.497409065486549361e-03
 -7.488173743236173872e-03
 -7.479053079116644055e-03
 -7.470046106109890990e-03
 -7.461151851861871909e-03
 -7.452369339187529113e-03
 -7.443697586539722161e-03
 -7.435135608485310584e-03
 -7.426682416155122070e-03
 -9.563172082579372152e-03
 -9.540563288140671214e-03
 -9.517959092493682299e-03
 -9.495362558630820668e-03
 -9.472776745280500968e-03
 -9.450204705210409409e-03
 -9.427649483533926192e-03
 -9.405114116028345794e-03
 -9.382601627466744323e-03
 -9.360115029954955632e-03
 -9.337657321298044669e-03
 -9.315231483364357426e-03
 -9.292840480490255350e-03
 -9.270487257886733667e-03
 -9.248174740082385631e-03
 -9.225905829382615927e-03
 -9.203683404360396558e-03
 -9.181510318370980986e-03
 -9.159389398098228413e-03
 -9.137323442132342169e-03
 -9.115315219578527806e-03
 -9.093367468699244116e-03
 -9.071482895597971288e-03
 -9.049664172927447334e-03
 -9.027913938645389103e-03
 -9.006234794812396569e-03
 -8.984629306417465239e-03
 -8.963100000247846769e-03
 -8.941649363813761534e-03
 -8.920279844300349828e-03
 -8.898993847568191853e-03
 -8.877793737202406901e-03
 -8.856681833593610734e-03
 -8.835660413087987816e-03
 -8.814731707154792317e-03
 -8.793897901618441537e-03
 -8.773161135933509047e-03
 -8.752523502501576708e-03
 -8.731987046039085820e-03
 -8.711553762988025543e-03
 -8.691225600982607769e-03
 -8.671004458345102708e-03
 -8.650892183648601838e-03
 -8.630890575312128235e-03
 -8.611001381240398697e-03
 -8.591226298524771293e-03
 -8.571566973169826922e-03
 -8.552024999877443079e-03
 -8.532601921870533804e-03
 -8.513299230760331196e-03
 -8.494118366457774003e-03
 -8.475060717123525031e-03
 -8.456127619163906692e-03
 -8.437320357265409854e-03
 -8.418640164470110945e-03
 -8.400088222285034129e-03
 -8.381665660834409712e-03
 -8.363373559051199765e-03
 -8.345212944897758417e-03
 -8.327184795621096411e-03
 -8.309290038056997216e-03
 -8.291529548940530792e-03
 -8.273904155279763334e-03
 -8.256414634730554689e-03
 -8.239061716019978332e-03
 -8.221846079397755400e-03
 -8.204768357097607864e-03
 -8.187829133849532787e-03
 -8.171028947397292880e-03
 -8.154368289049310908e-03
 -8.137847604251267214e-03
 -8.121467293176795610e-03
 -8.105227711346339042e-03
 -8.089129170248610806e-03
 -8.073171938005919979e-03
 -8.057356240031813763e-03
 -8.041682259720822623e-03
 -8.026150139140030351e-03
 -8.010759979750869952e-03
 -7.995511843127873358e-03
 -7.980405751692573948e-03
 -7.965441689470024664e-03
 -7.950619602836257391e-03
 -7.935939401285991776e-03
 -7.921400958208590914e-03
 -7.907004111659413081e-03
 -7.892748665153704463e-03
 -7.878634388446843079e-03
 -7.864661018333702833e-03
 -7.850828259440813250e-03
 -7.837135785025164947e-03
 -7.823583237775086352e-03
 -7.810170230605698559e-03
 -7.796896347462493014e-03
 -7.783761144117122902e-03
 -7.770764148964858127e-03
 -7.757904863814885435e-03
 -7.745182764687291548e-03
 -7.732597302596675923e-03
 -7.720147904332271514e-03
 -7.707833973238961515e-03
 -7.695654889992072784e-03
 -7.683610013357513452e-03
 -7.671698680953573275e-03
 -7.659920210005592527e-03
 -7.648273898090631080e-03
 -7.636759023872784734e-03
 -7.625374847834350336e-03
 -7.614120612995593784e-03
 -7.602995545626257262e-03
 -7.591998855947715459e-03
 -7.581129738827383641e-03
 -7.570387374456795035e-03
 -7.559770929029438827e-03
 -7.549279555399515326e-03
 -7.538912393735046347e-03
 -7.528668572157518057e-03
 -7.518547207371715710e-03
 -7.508547405285628806e-03
 -7.498668261617156758e-03
 -7.488908862487952435e-03
 -7.479268285011089236e-03
 -7.469745597861076475e-03
 -7.460339861836388572e-03
 -7.451050130408021915e-03
 -7.441875450256969435e-03
 -7.432814861805491814e-03
 -7.423867399716788974e-03
 -7.415032093413125545e-03
 -7.406307967556782952e-03
 -7.397694042534085426e-03
 -7.389189334911937593e-03
 -7.380792857908455816e-03
 -9.504446953361793751e-03
 -9.481950791677302981e-03
 -9.459459216316148944e-03
 -9.436975281945000557e-03
 -9.414502038966685721e-03
 -9.392042531825491383e-03
 -9.369599797311830430e-03
 -9.347176862892112373e-03
 -9.324776745022278143e-03
 -9.302402447510000824e-03
 -9.280056959855106924e-03
 -9.257743255638635829e-03
 -9.235464290913588878e-03
 -9.213223002616306029e-03
 -9.191022307014073967e-03
 -9.168865098160308008e-03
 -9.146754246387068729e-03
 -9.124692596826239691e-03
 -9.102682967949610182e-03
 -9.080728150151373690e-03
 -9.058830904360820960e-03
 -9.036993960680165736e-03
 -9.015220017072608089e-03
 -8.993511738072872824e-03
 -8.971871753544061537e-03
 -8.950302657475869145e-03
 -8.928807006807181965e-03
 -8.907387320313198825e-03
 -8.886046077511054742e-03
 -8.864785717630054365e-03
 -8.843608638604947766e-03
 -8.822517196126748729e-03
 -8.801513702737226441e-03
 -8.780600426962183874e-03
 -8.759779592496493364e-03
 -8.739053377430408207e-03
 -8.718423913529130265e-03
 -8.697893285552817447e-03
 -8.677463530622922180e-03
 -8.657136637638011140e-03
 -8.636914546743257315e-03
 -8.616799148825956406e-03
 -8.596792285083481797e-03
 -8.576895746613388480e-03
 -8.557111274068428600e-03
 -8.537440557351417061e-03
 -8.517885235338791203e-03
 -8.498446895681346577e-03
 -8.479127074618298884e-03
 -8.459927256850435784e-03
 -8.440848875457852840e-03
 -8.421893311846059132e-03
 -8.403061895748712914e-03
 -8.384355905262595374e-03
 -8.365776566924181326e-03
 -8.347325055825950690e-03
 -8.329002495763534672e-03
 -8.310809959438728717e-03
 -8.292748468670296108e-03
 -8.274818994665745359e-03
 -8.257022458314028368e-03
 -8.239359730511347513e-03
 -8.221831632519271960e-03
 -8.204438936360941570e-03
 -8.187182365235006615e-03
 -8.170062593969367251e-03
 -8.153080249487713524e-03
 -8.136235911323400766e-03
 -8.119530112135025027e-03
 -8.102963338262783588e-03
 -8.086536030300383801e-03
 -8.070248583687808508e-03
 -8.054101349330187315e-03
 -8.038094634228373780e-03
 -8.022228702130040912e-03
 -8.006503774204143387e-03
 -7.990920029721028037e-03
 -7.975477606755250123e-03
 -7.960176602893576439e-03
 -7.945017075969491513e-03
 -7.929999044791061560e-03
 -7.915122489896057878e-03
 -7.900387354303831100e-03
 -7.885793544281713766e-03
 -7.871340930124131469e-03
 -7.857029346919862378e-03
 -7.842858595346367118e-03
 -7.828828442457821599e-03
 -7.814938622472747398e-03
 -7.801188837576692597e-03
 -7.787578758715385518e-03
 -7.774108026395458795e-03
 -7.760776251480508772e-03
 -7.747583015997482579e-03
 -7.734527873926404055e-03
 -7.721610352001269557e-03
 -7.708829950498124160e-03
 -7.696186144034325091e-03
 -7.683678382342100897e-03
 -7.671306091064047060e-03
 -7.659068672518468644e-03
 -7.646965506480073518e-03
 -7.634995950936212042e-03
 -7.623159342852143389e-03
 -7.611454998920043173e-03
 -7.599882216304708164e-03
 -7.588440273377195996e-03
 -7.577128430444067357e-03
 -7.565945930467403782e-03
 -7.554891999773070098e-03
 -7.543965848752307718e-03
 -7.533166672555806180e-03
 -7.522493651766434114e-03
 -7.511945953081617874e-03
 -7.501522729964633061e-03
 -7.491223123299185077e-03
 -7.481046262025810648e-03
 -7.470991263773873146e-03
 -7.461057235473056957e-03
 -7.451243273962171280e-03
 -7.441548466583642468e-03
 -7.431971891765113032e-03
 -7.422512619588789162e-03
 -7.413169712352259480e-03
 -7.403942225118820449e-03
 -7.394829206245140223e-03
 -7.385829697913346044e-03
 -7.376942736638920917e-03
 -7.368167353772462833e-03
 -7.359502575984253753e-03
 -7.350947425746911720e-03
 -7.342500921797108331e-03
 -7.334162079584987878e-03
 -9.444709829245983429e-03
 -9.422329260119067032e-03
 -9.399953264128875843e-03
 -9.377584887134382888e-03
 -9.355227170732633574e-03
 -9.332883150564364946e-03
 -9.310555854627139763e-03
 -9.288248301592387166e-03
 -9.265963499135816336e-03
 -9.243704442284863404e-03
 -9.221474111777054963e-03
 -9.199275472434842796e-03
 -9.177111471565959841e-03
 -9.154985037376536794e-03
 -9.132899077415485359e-03
 -9.110856477032067136e-03
 -9.088860097877652852e-03
 -9.066912776410014294e-03
 -9.045017322457542253e-03
 -9.023176517787142095e-03
 -9.001393114721461391e-03
 -8.979669834785567947e-03
 -8.958009367383607327e-03
 -8.936414368527663410e-03
 -8.914887459580396120e-03
 -8.893431226060613190e-03
 -8.872048216477718130e-03
 -8.850740941200896036e-03
 -8.829511871385784666e-03
 -8.808363437934537202e-03
 -8.787298030492073087e-03
 -8.766317996508801724e-03
 -8.745425640324338071e-03
 -8.724623222309688814e-03
 -8.703912958053238585e-03
 -8.683297017592061032e-03
 -8.662777524685694175e-03
 -8.642356556146313373e-03
 -8.622036141204575399e-03
 -8.601818260929469662e-03
 -8.581704847692309471e-03
 -8.561697784676684797e-03
 -8.541798905435851047e-03
 -8.522009993502490874e-03
 -8.502332782026613203e-03
 -8.482768953479765534e-03
 -8.463320139391756688e-03
 -8.443987920137953698e-03
 -8.424773824765936087e-03
 -8.405679330863865054e-03
 -8.386705864489616552e-03
 -8.367854800109686061e-03
 -8.349127460609367946e-03
 -8.330525117330679977e-03
 -8.312048990148077077e-03
 -8.293700247586695273e-03
 -8.275480006981365128e-03
 -8.257389334661448255e-03
 -8.239429246186627878e-03
 -8.221600706608945749e-03
 -8.203904630762984956e-03
 -8.186341883604645805e-03
 -8.168913280566941076e-03
 -8.151619587953016707e-03
 -8.134461523361979571e-03
 -8.117439756131075018e-03
 -8.100554907820944547e-03
 -8.083807552711413241e-03
 -8.067198218336579102e-03
 -8.050727386033330879e-03
 -8.034395491512524856e-03
 -8.018202925462160346e-03