<VTKFile type="UnstructuredGrid" byte_order="BigEndian">
<UnstructuredGrid><Piece NumberOfPoints="660" NumberOfCells="608">
<Points>
 <DataArray type="Float32" NumberOfComponents="3" format="ascii">
 -6.571638863533735275e-03 7.559053134173154831e-03 0.000000000000000000e+00
 -6.563344504684209824e-03 7.541354279965162277e-03 0.000000000000000000e+00
 -6.553982384502887726e-03 7.521375548094511032e-03 0.000000000000000000e+00
 -6.543457508087158203e-03 7.498916238546371460e-03 0.000000000000000000e+00
 -6.531680934131145477e-03 7.473785430192947388e-03 0.000000000000000000e+00
 -6.518571637570858002e-03 7.445811294019222260e-03 0.000000000000000000e+00
 -6.504063494503498077e-03 7.414851337671279907e-03 0.000000000000000000e+00
 -6.488109007477760315e-03 7.380804978311061859e-03 0.000000000000000000e+00
 -6.470686756074428558e-03 7.343627046793699265e-03 0.000000000000000000e+00
 -6.451806984841823578e-03 7.303339429199695587e-03 0.000000000000000000e+00
 -6.431518122553825378e-03 7.260044105350971222e-03 0.000000000000000000e+00
 -6.409907713532447815e-03 7.213928736746311188e-03 0.000000000000000000e+00
 -6.387108471244573593e-03 7.165275979787111282e-03 0.000000000000000000e+00
 -6.363294087350368500e-03 7.114457432180643082e-03 0.000000000000000000e+00
 -6.338678766041994095e-03 7.061929907649755478e-03 0.000000000000000000e+00
 -6.313509307801723480e-03 7.008220534771680832e-03 0.000000000000000000e+00
 -6.288057193160057068e-03 6.953906733542680740e-03 0.000000000000000000e+00
 -6.262604612857103348e-03 6.899592932313680649e-03 0.000000000000000000e+00
 -6.237435620278120041e-03 6.845883559435606003e-03 0.000000000000000000e+00
 -6.212820298969745636e-03 6.793356034904718399e-03 0.000000000000000000e+00
 -6.189005915075540543e-03 6.742537487298250198e-03 0.000000000000000000e+00
 -6.166206207126379013e-03 6.693884264677762985e-03 0.000000000000000000e+00
 -6.144596263766288757e-03 6.647769361734390259e-03 0.000000000000000000e+00
 -6.124306935817003250e-03 6.604473572224378586e-03 0.000000000000000000e+00
 -6.105427630245685577e-03 6.564186420291662216e-03 0.000000000000000000e+00
 -6.088005378842353821e-03 6.527008023113012314e-03 0.000000000000000000e+00
 -6.072050891816616058e-03 6.492962129414081573e-03 0.000000000000000000e+00
 -6.057542283087968826e-03 6.462001707404851913e-03 0.000000000000000000e+00
 -6.044433452188968658e-03 6.434027571231126785e-03 0.000000000000000000e+00
 -6.032656878232955933e-03 6.408897228538990021e-03 0.000000000000000000e+00
 -6.022132001817226410e-03 6.386437918990850449e-03 0.000000000000000000e+00
 -6.012769415974617004e-03 6.366459187120199203e-03 0.000000000000000000e+00
 -6.004475522786378860e-03 6.348760332912206650e-03 0.000000000000000000e+00
 -6.513645872473716736e-03 7.658654823899269104e-03 0.000000000000000000e+00
 -6.505358964204788208e-03 7.640632800757884979e-03 0.000000000000000000e+00
 -6.496005225926637650e-03 7.620288990437984467e-03 0.000000000000000000e+00
 -6.485489662736654282e-03 7.597419433295726776e-03 0.000000000000000000e+00
 -6.473723333328962326e-03 7.571829948574304581e-03 0.000000000000000000e+00
 -6.460625678300857544e-03 7.543344516307115555e-03 0.000000000000000000e+00
 -6.446130108088254929e-03 7.511819247156381607e-03 0.000000000000000000e+00
 -6.430189125239849091e-03 7.477150764316320419e-03 0.000000000000000000e+00
 -6.412782240658998489e-03 7.439293432980775833e-03 0.000000000000000000e+00
 -6.393919698894023895e-03 7.398270070552825928e-03 0.000000000000000000e+00
 -6.373648531734943390e-03 7.354183588176965714e-03 0.000000000000000000e+00
 -6.352057214826345444e-03 7.307226303964853287e-03 0.000000000000000000e+00
 -6.329277530312538147e-03 7.257684599608182907e-03 0.000000000000000000e+00
 -6.305484101176261902e-03 7.205937523394823074e-03 0.000000000000000000e+00
 -6.280890665948390961e-03 7.152450736612081528e-03 0.000000000000000000e+00
 -6.255743559449911118e-03 7.097759749740362167e-03 0.000000000000000000e+00
 -6.230313330888748169e-03 7.042454089969396591e-03 0.000000000000000000e+00
 -6.204883567988872528e-03 6.987147964537143707e-03 0.000000000000000000e+00
 -6.179736461490392685e-03 6.932457443326711655e-03 0.000000000000000000e+00
 -6.155142560601234436e-03 6.878970190882682800e-03 0.000000000000000000e+00
 -6.131349131464958191e-03 6.827223580330610275e-03 0.000000000000000000e+00
 -6.108569912612438202e-03 6.777681875973939896e-03 0.000000000000000000e+00
 -6.086978595703840256e-03 6.730724591761827469e-03 0.000000000000000000e+00
 -6.066707428544759750e-03 6.686637643724679947e-03 0.000000000000000000e+00
 -6.047844421118497849e-03 6.645614281296730042e-03 0.000000000000000000e+00
 -6.030437536537647247e-03 6.607757415622472763e-03 0.000000000000000000e+00
 -6.014497019350528717e-03 6.573088932782411575e-03 0.000000000000000000e+00
 -6.000001449137926102e-03 6.541563197970390320e-03 0.000000000000000000e+00
 -5.986903794109821320e-03 6.513078231364488602e-03 0.000000000000000000e+00
 -5.975137464702129364e-03 6.487488746643066406e-03 0.000000000000000000e+00
 -5.964621901512145996e-03 6.464619189500808716e-03 0.000000000000000000e+00
 -5.955267697572708130e-03 6.444275379180908203e-03 0.000000000000000000e+00
 -5.946980789303779602e-03 6.426252890378236771e-03 0.000000000000000000e+00
 -6.454920861870050430e-03 7.757927291095256805e-03 0.000000000000000000e+00
 -6.446641869843006134e-03 7.739580236375331879e-03 0.000000000000000000e+00
 -6.437296513468027115e-03 7.718869950622320175e-03 0.000000000000000000e+00
 -6.426790729165077209e-03 7.695588748902082443e-03 0.000000000000000000e+00
 -6.415035575628280640e-03 7.669538259506225586e-03 0.000000000000000000e+00
 -6.401950027793645859e-03 7.640540134161710739e-03 0.000000000000000000e+00
 -6.387467496097087860e-03 7.608446758240461349e-03 0.000000000000000000e+00
 -6.371541880071163177e-03 7.573153823614120483e-03 0.000000000000000000e+00
 -6.354150827974081039e-03 7.534615229815244675e-03 0.000000000000000000e+00
 -6.335305515676736832e-03 7.492852862924337387e-03 0.000000000000000000e+00
 -6.315052974969148636e-03 7.447971962392330170e-03 0.000000000000000000e+00
 -6.293481681495904922e-03 7.400169037282466888e-03 0.000000000000000000e+00
 -6.270723417401313782e-03 7.349735125899314880e-03 0.000000000000000000e+00
 -6.246951874345541000e-03 7.297056261450052261e-03 0.000000000000000000e+00
 -6.222381256520748138e-03 7.242605555802583694e-03 0.000000000000000000e+00
 -6.197257433086633682e-03 7.186930160969495773e-03 0.000000000000000000e+00
 -6.171850953251123428e-03 7.130627986043691635e-03 0.000000000000000000e+00
 -6.146444473415613174e-03 7.074325811117887497e-03 0.000000000000000000e+00
 -6.121320649981498718e-03 7.018650416284799576e-03 0.000000000000000000e+00
 -6.096749566495418549e-03 6.964200176298618317e-03 0.000000000000000000e+00
 -6.072978489100933075e-03 6.911521311849355698e-03 0.000000000000000000e+00
 -6.050219759345054626e-03 6.861086934804916382e-03 0.000000000000000000e+00
 -6.028648465871810913e-03 6.813284009695053101e-03 0.000000000000000000e+00
 -6.008395925164222717e-03 6.768403574824333191e-03 0.000000000000000000e+00
 -5.989550612866878510e-03 6.726641207933425903e-03 0.000000000000000000e+00
 -5.972160026431083679e-03 6.688102148473262787e-03 0.000000000000000000e+00
 -5.956233944743871689e-03 6.652809679508209229e-03 0.000000000000000000e+00
 -5.941751878708600998e-03 6.620716303586959839e-03 0.000000000000000000e+00
 -5.928666330873966217e-03 6.591717712581157684e-03 0.000000000000000000e+00
 -5.916911177337169647e-03 6.565667223185300827e-03 0.000000000000000000e+00
 -5.906405393034219742e-03 6.542386021465063095e-03 0.000000000000000000e+00
 -5.897059570997953415e-03 6.521675735712051392e-03 0.000000000000000000e+00
 -5.888780578970909119e-03 6.503328680992126465e-03 0.000000000000000000e+00
 -6.395464297384023666e-03 7.856853306293487549e-03 0.000000000000000000e+00
 -6.387193221598863602e-03 7.838180288672447205e-03 0.000000000000000000e+00
 -6.377857178449630737e-03 7.817102596163749695e-03 0.000000000000000000e+00
 -6.367361638695001602e-03 7.793407887220382690e-03 0.000000000000000000e+00
 -6.355617661029100418e-03 7.766894996166229248e-03 0.000000000000000000e+00
 -6.342545151710510254e-03 7.737381849437952042e-03 0.000000000000000000e+00
 -6.328077055513858795e-03 7.704718504101037979e-03 0.000000000000000000e+00
 -6.312166806310415268e-03 7.668798789381980896e-03 0.000000000000000000e+00
 -6.294792983680963516e-03 7.629575673490762711e-03 0.000000000000000000e+00
 -6.275965832173824310e-03 7.587071973830461502e-03 0.000000000000000000e+00
 -6.255733314901590347e-03 7.541394326835870743e-03 0.000000000000000000e+00
 -6.234183441847562790e-03 7.492742501199245453e-03 0.000000000000000000e+00
 -6.211447063833475113e-03 7.441412657499313354e-03 0.000000000000000000e+00
 -6.187698803842067719e-03 7.387798279523849487e-03 0.000000000000000000e+00
 -6.163151934742927551e-03 7.332381326705217361e-03 0.000000000000000000e+00
 -6.138052791357040405e-03 7.275716867297887802e-03 0.000000000000000000e+00
 -6.112671457231044769e-03 7.218415383249521255e-03 0.000000000000000000e+00
 -6.087289657443761826e-03 7.161113433539867401e-03 0.000000000000000000e+00
 -6.062190514057874680e-03 7.104448974132537842e-03 0.000000000000000000e+00
 -6.037644110620021820e-03 7.049032021313905716e-03 0.000000000000000000e+00
 -6.013895850628614426e-03 6.995417643338441849e-03 0.000000000000000000e+00
 -5.991159472614526749e-03 6.944087799638509750e-03 0.000000000000000000e+00
 -5.969609599560499191e-03 6.895435974001884460e-03 0.000000000000000000e+00
 -5.949376616626977921e-03 6.849758327007293701e-03 0.000000000000000000e+00
 -5.930549930781126022e-03 6.807254627346992493e-03 0.000000000000000000e+00
 -5.913176108151674271e-03 6.768031511455774307e-03 0.000000000000000000e+00
 -5.897265858948230743e-03 6.732111796736717224e-03 0.000000000000000000e+00
 -5.882797762751579285e-03 6.699448917061090469e-03 0.000000000000000000e+00
[...]
<CellData>
 <DataArray Name="pos.x" type="Float32" NumberOfComponents="1" format="ascii">
 -6.538451366900223556e-03
 -6.529627245482125600e-03
 -6.519688334786910913e-03
 -6.508542901354858780e-03
 -6.496105899377475554e-03
 -6.482303683046452755e-03
 -6.467079411910365769e-03
 -6.450398933174596172e-03
 -6.432256791661124587e-03
 -6.412681882667394841e-03
 -6.391742149850550975e-03
 -6.369547670767898399e-03
 -6.346251498246999016e-03
 -6.322047759590478967e-03
 -6.297166762080460244e-03
 -6.271867190175019376e-03
 -6.246425857319231993e-03
 -6.221125823690509989e-03
 -6.196243937759081041e-03
 -6.172038949019962792e-03
 -6.148741250896664658e-03
 -6.126545067015687004e-03
 -6.105603545871917358e-03
 -6.086026851037142256e-03
 -6.067882996440926435e-03
 -6.051200929004761642e-03
 -6.035975226458679781e-03
 -6.022171752178009756e-03
 -6.009733668336176941e-03
 -5.998587321800024665e-03
 -5.988647652924962948e-03
 -5.979822910830298426e-03
 -6.480095656728637570e-03
 -6.471279492672312589e-03
 -6.461349544352484875e-03
 -6.450214160970937222e-03
 -6.437788373364653274e-03
 -6.423998602107979135e-03
 -6.408788058014197944e-03
 -6.392122619142533331e-03
 -6.373996835358447174e-03
 -6.354439576096862843e-03
 -6.333518724022957694e-03
 -6.311344257774896029e-03
 -6.288069092554548524e-03
 -6.263887181010528715e-03
 -6.239028623107454284e-03
 -6.213751870310478195e-03
 -6.188333486590041552e-03
 -6.163056276855854304e-03
 -6.138196839742465945e-03
 -6.114013691080493786e-03
 -6.090737016086603985e-03
 -6.068560862738706617e-03
 -6.047638240915228884e-03
 -6.028079214377859638e-03
 -6.009951735331644021e-03
 -5.993284724300926292e-03
 -5.978072763711299135e-03
 -5.964281747624035693e-03
 -5.951854889444708335e-03
 -5.940718602497189506e-03
 -5.930787903923200911e-03
 -5.921971125684702929e-03
 -6.421008222655857911e-03
 -6.412200454761279693e-03
 -6.402279963057609657e-03
 -6.391155183977270844e-03
 -6.378741229229178446e-03
 -6.364964589435652929e-03
 -6.349768529500610451e-03
 -6.333118960035802152e-03
 -6.315010436215876162e-03
 -6.295471800174596254e-03
 -6.274570870195905065e-03
 -6.252417520517247057e-03
 -6.229164521091606205e-03
 -6.205005640248742460e-03
 -6.180170759173526582e-03
 -6.154918083463411203e-03
 -6.129523913846151965e-03
 -6.104270785885618916e-03
 -6.079435034618593803e-03
 -6.055274929353295955e-03
 -6.032020435655261782e-03
 -6.009865416208038172e-03
 -5.988962734673889884e-03
 -5.969422349539151365e-03
 -5.951312147913609581e-03
 -5.934661022492991773e-03
 -5.919463560675891807e-03
 -5.905685688906021566e-03
 -5.893270674651843871e-03
 -5.882145001355619691e-03
 -5.872223767170721247e-03
 -5.863415391462265674e-03
 -6.361189064327084190e-03
 -6.352390194218077678e-03
 -6.342479724139062774e-03
 -6.331366182964079381e-03
 -6.318964768115175462e-03
 -6.305202044446873468e-03
 -6.290021334187632235e-03
 -6.273388582439999410e-03
 -6.255298349995149464e-03
 -6.235779450037334977e-03
 -6.214899632600685668e-03
 -6.192768661250833140e-03
 -6.169539151981874928e-03
 -6.145404677755713675e-03
 -6.120594887871972159e-03
 -6.095367727348427120e-03
 -6.069999217926273782e-03
 -6.044771609733154590e-03
 -6.019960958474653359e-03
 -5.995825272236009543e-03
 -5.972594283848010541e-03
 -5.950461659673911621e-03
 -5.929580108468932888e-03
 -5.910059477195471131e-03
 -5.891967584014902101e-03
 -5.875333292157523812e-03
 -5.860151194308492982e-03
 -5.846387251239477771e-03
 -5.833984787711601200e-03
 -5.822870361472469100e-03
 -5.812959156520291874e-03
 -5.804159684836870080e-03
 -6.300638121473860383e-03
 -6.291848715736190860e-03
 -6.281948905453854995e-03
 -6.270847317838483363e-03
 -6.258459241484728985e-03
 -6.244711320212493685e-03
 -6.229546937220857214e-03
 -6.212932074297763257e-03
 -6.194861298196894552e-03
 -6.175363391290879592e-03
 -6.154506030992332524e-03
 -6.132398863117698683e-03
 -6.109194339860902524e-03
 -6.085085826337968164e-03
 -6.060302725164503149e-03
 -6.035102704157328454e-03
 -6.009761488292492994e-03
 -5.984561024085910570e-03
 -5.959777070141147534e-03
 -5.935667356716660056e-03
 -5.912461369128807313e-03
 -5.890352564965877641e-03
 -5.869493488259735527e-03
 -5.849993867390546054e-03
 -5.831921447215525356e-03
 -5.815305059652630705e-03
 -5.800139303026385397e-03
 -5.786390174633638042e-03
 -5.774001060177186111e-03
 -5.762898596437694178e-03
 -5.752998058718442054e-03
 -5.744208057503612762e-03
 -6.239355273924046888e-03
 -6.230575966231419009e-03
 -6.220687529485112791e-03
 -6.209598695823542215e-03
 -6.197224851121630948e-03
 -6.183492723456292771e-03
 -6.168345761079050034e-03
 -6.151749984913158602e-03
 -6.133699968063064008e-03
 -6.114224460008944699e-03
 -6.093391060653053845e-03
 -6.071309290146467176e-03
 -6.048131425877554569e-03
 -6.024050611162724139e-03
 -5.999295985380965167e-03
 -5.974124920561895737e-03
 -5.948812825031950247e-03
 -5.923641321367704472e-03
 -5.898885851195636958e-03
 -5.874803848376648936e-03
 -5.851624534182912896e-03
 -5.829541143497850471e-03
 -5.808706044648026014e-03
 -5.789228839537233565e-03
 -5.771177194849680392e-03
 -5.754579909119920955e-03
 -5.739431586709796765e-03
 -5.725698263894516034e-03
 -5.713323391402539905e-03
 -5.702233690334722674e-03
 -5.692344533405167481e-03
 -5.683564636186073764e-03
 -6.177340341599808250e-03
 -6.168571834847997454e-03
 -6.158695563343258815e-03
 -6.147620371460683734e-03
 -6.135261749133350331e-03
 -6.121546514559431801e-03
 -6.106418185573405343e-03
 -6.089842824951973745e-03
 -6.071815012580288745e-03
 -6.052363462738045638e-03
 -6.031555692394896702e-03
 -6.009501087255736049e-03
 -5.986351737698188992e-03
 -5.962300549759657307e-03
 -5.937576381223740041e-03
 -5.912436287716898130e-03
 -5.887155338859514919e-03
 -5.862014810741441456e-03
 -5.837289805964649900e-03
 -5.813237441394164887e-03
 -5.790086655920258923e-03
 -5.768030446268637007e-03
 -5.747220992880624872e-03
 -5.727767762425118626e-03
 -5.709738338008219297e-03
 -5.693161482488388186e-03
 -5.678031806702701217e-03
 -5.664315388627515213e-03
 -5.651955748546017878e-03
 -5.640879697745013362e-03
 -5.631002713120090292e-03
 -5.622233622638030462e-03
 -6.114593084521818996e-03
 -6.105836152958666468e-03
 -6.095972918768891545e-03
 -6.084912346614105953e-03
 -6.072570037950098150e-03
 -6.058872907561729630e-03
 -6.043764547851283517e-03
 -6.027211066444083075e-03
 -6.009207050481347318e-03
 -5.989781176498075281e-03
 -5.969000872560866790e-03
 -5.946975380256094151e-03
 -5.923856589506838223e-03
 -5.899837152022562731e-03
 -5.875145623770102431e-03
 -5.850038721262541992e-03
 -5.824791151121147884e-03
 -5.799683818112089280e-03
 -5.774991461528049437e-03
 -5.750970858546164063e-03
 -5.727850645477715157e-03
 -5.705823563867117552e-03
 -5.685041592852104267e-03
 -5.665614054218778145e-03
 -5.647608441543086090e-03
 -5.631053479477464256e-03
 -5.615943785818155315e-03
 -5.602245483242571447e-03
 -5.589902166574674085e-03
 -5.578840743749030953e-03
 -5.568976803304161692e-03
 -5.560219293646236592e-03
 -6.051113202809151742e-03
 -6.042368694165803182e-03
 -6.032519452131286479e-03
 -6.021474570470374682e-03
 -6.009149770332062115e-03
 -5.995472070163680375e-03
 -5.980385142397974009e-03
 -5.963855142786573908e-03
 -5.945876666246572781e-03
 -5.926478348785299902e-03
 -5.905727523028014500e-03
 -5.883733275852902518e-03
 -5.860647282009183445e-03
 -5.836661920213364642e-03
 -5.812005422473392503e-03
 -5.786934141326817091e-03
 -5.761722393795652708e-03
 -5.736650686128750426e-03
 -5.711993367719107179e-03
 -5.688006851212068504e-03
 -5.664919448221760953e-03
 -5.642923626473186904e-03
 -5.622171149107667645e-03
 -5.602771182463444841e-03
 -5.584791124068470315e-03
 -5.568259657599241436e-03
 -5.553171408340650331e-03
 -5.539492546953455644e-03
 -5.527166748264899718e-03
 -5.516121023931277664e-03
 -5.506271082301813884e-03
 -5.497526001033815370e-03
 -5.986900336682214954e-03
 -5.978169174305918848e-03
 -5.968334964435917031e-03
 -5.957306939541088045e-03
 -5.945000949365853923e-03
 -5.931344123728764066e-03
 -5.916280221037462962e-03
 -5.899775448744826352e-03
 -5.881824410108055061e-03
 -5.862455697574996821e-03
 -5.841736541208551216e-03
 -5.819775861647311782e-03
 -5.796725102434165285e-03
 -5.772776348962282110e-03
 -5.748157485166465429e-03
 -5.723124472528282568e-03
 -5.697951209497503257e-03
 -5.672917774187408169e-03
 -5.648298097129826265e-03
 -5.624348199375020334e-03
 -5.601296043751362308e-03
 -5.579333803861246353e-03
 -5.558613010845700649e-03
 -5.539242664087282338e-03
 -5.521290057964537562e-03
 -5.504783832161894153e-03
 -5.489718620027947589e-03
 -5.476060643784022228e-03
 -5.463753664207889223e-03
 -5.452724804382646367e-03
 -5.442889901366713273e-03
 -5.434158171663101833e-03
 -5.921954066464478993e-03
 -5.913237251448538213e-03
 -5.903419201322331229e-03
 -5.892409297665737906e-03
 -5.880123528471527944e-03
 -5.866489143284032114e-03
 -5.851449992937427479e-03
 -5.834972340454844773e-03
 -5.817050798048699865e-03
 -5.797713911322058961e-03
 -5.777028800053551211e-03
 -5.755104206139614528e-03
 -5.732091324536585895e-03
 -5.708181925271747781e-03
 -5.683603518063682844e-03
 -5.658611643976863177e-03
 -5.633479751478689436e-03
 -5.608487458433426311e-03
 -5.583908245110672484e-03
 -5.559997711625126564e-03
 -5.536983445900302454e-03
 -5.515057305402728573e-03
 -5.494370571920539729e-03
 -5.475032065402989784e-03
 -5.457108969379393174e-03
 -5.440629876271862141e-03
 -5.425589428115461244e-03
 -5.411953902568118931e-03
 -5.399667152809270801e-03
 -5.388656421702046027e-03
 -5.378837684660033557e-03
 -5.370120307437439150e-03
 -5.856273912585583871e-03
 -5.847572525901996963e-03
 -5.837771853065652251e-03
 -5.826781436011351650e-03
 -5.814517411400319143e-03
 -5.800907157524679177e-03
 -5.785894624607815749e-03
 -5.769446135425002932e-03
 -5.751556311807180452e-03
 -5.732253648963155437e-03
 -5.711605148053540588e-03
 -5.689719358730845576e-03
 -5.666747208598024894e-03
 -5.642880128517881524e-03
 -5.618345225762732577e-03
 -5.593397589278157472e-03
 -5.568310183631517904e-03
 -5.543362131763704577e-03
 -5.518826429774918892e-03
 -5.494958225162023015e-03
 -5.471984702739323379e-03
 -5.450097380068167144e-03
 -5.429447270844718620e-03
 -5.410143002110781238e-03
 -5.392251638232715624e-03
 -5.375801720836629466e-03
 -5.360787901316459506e-03
 -5.347176516954859488e-03
 -5.334911520293900318e-03
 -5.323920282999909312e-03
 -5.314118929256892408e-03
 -5.305416985305968190e-03
 -5.789859335581444208e-03
 -5.781174540210142279e-03
 -5.771392554581778259e-03
 -5.760423093077981713e-03
 -5.748182452238769120e-03
 -5.734598148813216563e-03
 -5.719614239904130884e-03
 -5.703197112538392795e-03
 -5.685341398878064265e-03
 -5.666075539920613878e-03
 -5.645466409240587624e-03
 -5.623622349723780313e-03
 -5.600694001429631398e-03
 -5.576872430452494908e-03
 -5.552384311246985268e-03
 -5.527484246533502857e-03
 -5.502444680490227967e-03
 -5.477544203827918075e-03
 -5.453055291999295458e-03
 -5.429232605795986273e-03
 -5.406302896578844136e-03
 -5.384457316429211438e-03
 -5.363846590791074287e-03
 -5.344579139301345976e-03
 -5.326721898216657709e-03
 -5.310303354566009958e-03
 -5.295318169826837736e-03
 -5.281732745408074595e-03
 -5.269491140708169354e-03
 -5.258520865900910037e-03
 -5.248738205148076666e-03
 -5.240052857263523441e-03
 -5.722709736096186911e-03
 -5.714042779157588181e-03
 -5.704280885426134262e-03
 -5.693333954696334215e-03
 -5.681118455409864092e-03
 -5.667562053182386567e-03
 -5.652608920029773658e-03
 -5.636225512053939964e-03
 -5.618406472513556328e-03
 -5.599180184101245142e-03
 -5.578613383190904849e-03
 -5.556814190326409345e-03
 -5.533932936374027882e-03
 -5.510160295204397443e-03
 -5.485722475886753782e-03
 -5.460873558343767691e-03
 -5.435885427233207688e-03
 -5.411036101032253021e-03
 -5.386597495427422090e-03
 -5.362823747951219258e-03
 -5.339941143970956643e-03
 -5.318140442662092592e-03
 -5.297572059595839940e-03
 -5.278344191456356763e-03
 -5.260523636798839810e-03
 -5.244138823976575957e-03
 -5.229184425325362172e-03
 -5.215626911211085869e-03
 -5.203410455921718240e-03
 -5.192462718544683942e-03
 -5.182700155239348440e-03
 -5.174032650354347049e-03
 -5.654824454884037691e-03
 -5.646176669770925499e-03
 -5.636436369795105872e-03
 -5.625513654031240145e-03
 -5.613325175674779149e-03
 -5.599798760336900660e-03
 -5.584878703536196032e-03
 -5.568531535607534715e-03
 -5.550751911725050093e-03
 -5.531568151900585588e-03
 -5.511046845025167375e-03
 -5.489295872652195235e-03
 -5.466465233306755205e-03
 -5.442745179281405395e-03
 -5.418361419442090446e-03
 -5.393567471808566327e-03
 -5.368634619684248960e-03
 -5.343840266539871646e-03
 -5.319455726470140831e-03
 -5.295734574666806187e-03
 -5.272902595710637387e-03
 -5.251150126547133451e-03
 -5.230627249758837589e-03
 -5.211441922453362643e-03
 -5.193660795224588553e-03
 -5.177312233391513467e-03
 -5.162390920977511476e-03
 -5.148863402467424889e-03
 -5.136673975628335519e-03
 -5.125750459591125671e-03
 -5.116009495358005837e-03
 -5.107361166673947579e-03
 -5.586202772810478119e-03
 -5.577575581318939581e-03
 -5.567858476530932951e-03
 -5.556961771583583502e-03
 -5.544802318132884336e-03
 -5.531308113654161140e-03
 -5.516423586325362727e-03
 -5.500115346215567365e-03
 -5.482378061285804981e-03
 -5.463239984201669758e-03
 -5.442767545411293650e-03
 -5.421068369721923456e-03
 -5.398292098637091398e-03
 -5.374628531572806824e-03
 -5.350302840062907614e-03
 -5.325567938530785007e-03
 -5.300694464314939687e-03
 -5.275959160272690289e-03
 -5.251632694308521268e-03
 -5.227968037598944295e-03
 -5.205190436838463136e-03
 -5.183489775473519058e-03
 -5.163015778447404593e-03
 -5.143876145564429785e-03
 -5.126137368518341071e-03
 -5.109827744944124561e-03
 -5.094941971436280775e-03
 -5.081446672103239262e-03
 -5.069286277351095320e-03
 -5.058388778217928067e-03
 -5.048671014252342597e-03
 -5.040043283372011747e-03
 -5.516843910853673309e-03
 -5.508238825314566191e-03
 -5.498546619118065831e-03
 -5.487677835190737582e-03
 -5.475549538225659915e-03
 -5.462089910186487644e-03
 -5.447243521651129461e-03
 -5.430977068273638506e-03
 -5.413285231730831891e-03
 -5.394196192379448716e-03
 -5.373776210564634552e-03
 -5.352132635465224608e-03
 -5.329414725311222741e-03
 -5.305811793349259238e-03
 -5.281548434291752359e-03
 -5.256876914615599139e-03
 -5.232067178245426199e-03
 -5.207395258912981412e-03
 -5.183131130894448602e-03
 -5.159527117022630859e-03
 -5.136807886641661311e-03
 -5.115162836438854298e-03
 -5.094741307496279160e-03
 -5.075650723459594442e-03
 -5.057957405485270438e-03
 -5.041689578578859542e-03
 -5.026841952843932003e-03
 -5.013381237869290151e-03
 -5.001252006441236735e-03
 -4.990382434126514055e-03
 -4.980689573593889349e-03
 -4.972083952652531919e-03
 -5.446747030107584875e-03
 -5.438165655516078063e-03
 -5.428500155689183933e-03
 -5.417661320028238116e-03
 -5.405566441735920949e-03
 -5.392143900660709491e-03
 -5.377338420119675763e-03
 -5.361116787559272109e-03
 -5.343473699358686040e-03
 -5.324437258299122115e-03
 -5.304073542250682151e-03
 -5.282489604721894542e-03
 -5.259834292811155221e-03
 -5.236296398264848710e-03
 -5.212099897064145608e-03
 -5.187496360673199414e-03
 -5.162754989246207821e-03
 -5.138151055905418839e-03
 -5.113953790953263898e-03
 -5.090414821832133299e-03
 -5.067758198655668636e-03
 -5.046172796051006174e-03
 -5.025807543410674288e-03
 -5.006769568208706972e-03
 -4.989125008714447203e-03
 -4.972902012052920692e-03
 -4.958095302834800676e-03
 -4.944671682342220362e-03
 -4.932575876081673159e-03
 -4.921736257542184100e-03
 -4.912070107979307071e-03
 -4.903488201777769090e-03
 -5.375911231778172754e-03
 -5.367355267928848248e-03
 -5.357718389022222451e-03
 -5.346911648610249909e-03
 -5.334852584789968356e-03
 -5.321469789481460787e-03
 -5.306708149691272657e-03
 -5.290534551233336269e-03
 -5.272943706232939738e-03
 -5.253963634319212990e-03
 -5.233660217783931735e-03
 -5.212140193242963820e-03
 -5.189551967157423305e-03
 -5.166083772358025759e-03
 -5.141958921709733135e-03
 -5.117428241819290541e-03
 -5.092760135739158624e-03
 -5.068229061457071687e-03
 -5.044103451982432686e-03
 -5.020634189543471577e-03
 -4.998044660665556214e-03
 -4.976523180530021545e-03
 -4.956218237366835470e-03
 -4.937236641281909748e-03
 -4.919644334577057826e-03
 -4.903469380938376906e-03
 -4.888706520535635904e-03
 -4.875322652926975149e-03
 -4.863262667287360057e-03
 -4.852455149214836110e-03
 -4.842817624932607527e-03
 -4.834261133067705579e-03
 </DataArray>
 <DataArray Name="pos.y" type="Float32" NumberOfComponents="1" format="ascii">
 7.600006266150234960e-03
 7.580995770810833659e-03
 7.559583597688338853e-03
 7.535572118212226396e-03
 7.508778111541691488e-03
 7.479042916749158339e-03
 7.446244078000796227e-03
 7.410308017257945939e-03
 7.371222982005889990e-03
 7.329051223642903297e-03
 7.283939118507278335e-03
 7.236123815296829735e-03
 7.185935047694120420e-03
 7.133791039339999578e-03
 7.080187959236092406e-03
 7.025683111554701689e-03
 6.970872857163936537e-03
 6.916367014756192449e-03
 6.862762020656340903e-03
 6.810615319151780422e-03
 6.760423264824227431e-03
 6.712604288832745535e-03
 6.667488330965113882e-03
 6.625312725225388812e-03
 6.586223999344017685e-03
 6.550284515940460461e-03
 6.517482593393205022e-03
 6.487744688501315138e-03
 6.460948351085864585e-03
 6.436934904438128616e-03
 6.415521097909773589e-03
 6.396509265397636902e-03
 7.699281071353924165e-03
 7.679925759942301568e-03
 7.658125208044290130e-03
 7.633678202332526246e-03
 7.606398198565521122e-03
 7.576123657929233375e-03
 7.542729903479142815e-03
 7.506142022726749671e-03
 7.466348050257713177e-03
 7.423411367028611915e-03
 7.377481004989043870e-03
 7.328798415044759929e-03
 7.277699312516529469e-03
 7.224609507756257071e-03
 7.170034170182470155e-03
 7.114540713078063537e-03
 7.058736314547697267e-03
 7.003241854267610970e-03
 6.948664586444770579e-03
 6.895572065673002612e-03
 6.844469648536332003e-03
 6.795783354673981709e-03
 6.749849107265398426e-03
 6.706908544097959536e-03
 6.667110849791859674e-03
 6.630519517467532015e-03
 6.597122653193483212e-03
 6.566845379612570519e-03
 6.539563025472615310e-03
 6.515114036040494175e-03
 6.493311837009397430e-03
 6.473955177199989912e-03
 7.798217286564588548e-03
 7.778515845244122692e-03
 7.756325434744317480e-03
 7.731441243326848609e-03
 7.703673390682727780e-03
 7.672857449149758126e-03
 7.638866512207621168e-03
 7.601624327838185820e-03
 7.561118716915841281e-03
 7.517414194266146613e-03
 7.470662457567903147e-03
 7.421109276334839945e-03
 7.369096370320375386e-03
 7.315057165498347475e-03
 7.259505866003018726e-03
 7.203020032744342042e-03
 7.146217702281994558e-03
 7.089730857417489256e-03
 7.034177611455406237e-03
 6.980135667813639616e-03
 6.928119419372321536e-03
 6.878562503158146615e-03
 6.831806848535732293e-03
 6.788098413468690064e-03
 6.747589049587730640e-03
 6.710343384816919339e-03
 6.676349312108286090e-03
 6.645530614859135148e-03
 6.617760392284510740e-03
 6.592874200661728856e-03
 6.570682129361163706e-03
 6.550979328468392419e-03
 7.896798126984103799e-03
 7.876749334487981313e-03
 7.854167689833661120e-03
 7.828844770169035919e-03
 7.800587347352804825e-03
 7.769228094677864925e-03
 7.734637868186611948e-03
 7.696739071602488880e-03
 7.655519311337604521e-03
 7.611044240088588736e-03
 7.563468230673374773e-03
 7.513041386449294257e-03
 7.460111452792546685e-03
 7.405119498169411042e-03
 7.348588793307114959e-03
 7.291107082548630922e-03
 7.233303299216878660e-03
 7.175820568414191872e-03
 7.119287900853752023e-03
 7.064293184582510869e-03
 7.011359880657743772e-03
 6.960929270366824663e-03
 6.913349310449093572e-03
 6.868870294285682639e-03
 6.827646749927300529e-03
 6.789744444104266717e-03
 6.755151055899934025e-03
 6.723789024741484016e-03
 6.695529212443806014e-03
 6.670204276102555639e-03
 6.647620956993176462e-03
 6.627570793770997011e-03
 7.995006403399555761e-03
 7.974609133802294456e-03