<VTKFile type="UnstructuredGrid" byte_order="BigEndian">
<UnstructuredGrid><Piece NumberOfPoints="2680" NumberOfCells="2527">
<Points>
 <DataArray type="Float32" NumberOfComponents="3" format="ascii">
 -8.549614809453487396e-03 1.102348975837230682e-02 0.000000000000000000e+00
 -8.529089391231536865e-03 1.098753884434700012e-02 0.000000000000000000e+00
 -8.508565835654735565e-03 1.095159258693456650e-02 0.000000000000000000e+00
 -8.488048799335956573e-03 1.091565657407045364e-02 0.000000000000000000e+00
 -8.467540144920349121e-03 1.087973546236753464e-02 0.000000000000000000e+00
 -8.447043597698211670e-03 1.084383483976125717e-02 0.000000000000000000e+00
 -8.426560088992118835e-03 1.080795936286449432e-02 0.000000000000000000e+00
 -8.406095206737518311e-03 1.077211368829011917e-02 0.000000000000000000e+00
 -8.385649882256984711e-03 1.073630433529615402e-02 0.000000000000000000e+00
 -8.365226909518241882e-03 1.070053409785032272e-02 0.000000000000000000e+00
 -8.344830013811588287e-03 1.066480856388807297e-02 0.000000000000000000e+00
 -8.324461989104747772e-03 1.062913332134485245e-02 0.000000000000000000e+00
 -8.304125629365444183e-03 1.059351395815610886e-02 0.000000000000000000e+00
 -8.283822797238826752e-03 1.055795326828956604e-02 0.000000000000000000e+00
 -8.263556286692619324e-03 1.052245683968067169e-02 0.000000000000000000e+00
 -8.243330754339694977e-03 1.048703119158744812e-02 0.000000000000000000e+00
 -8.223146200180053711e-03 1.045167818665504456e-02 0.000000000000000000e+00
 -8.203007280826568604e-03 1.041640434414148331e-02 0.000000000000000000e+00
 -8.182915858924388885e-03 1.038121432065963745e-02 0.000000000000000000e+00
 -8.162874728441238403e-03 1.034611277282238007e-02 0.000000000000000000e+00
 -8.142886683344841003e-03 1.031110249459743500e-02 0.000000000000000000e+00
 -8.122953586280345917e-03 1.027619093656539917e-02 0.000000000000000000e+00
 -8.103079162538051605e-03 1.024137996137142181e-02 0.000000000000000000e+00
 -8.083265274763107300e-03 1.020667515695095062e-02 0.000000000000000000e+00
 -8.063513785600662231e-03 1.017208117991685867e-02 0.000000000000000000e+00
 -8.043828420341014862e-03 1.013760175555944443e-02 0.000000000000000000e+00
 -8.024210110306739807e-03 1.010324060916900635e-02 0.000000000000000000e+00
 -8.004662580788135529e-03 1.006900332868099213e-02 0.000000000000000000e+00
 -7.985187694430351257e-03 1.003489270806312561e-02 0.000000000000000000e+00
 -7.965787313878536224e-03 1.000091340392827988e-02 0.000000000000000000e+00
 -7.946464233100414276e-03 9.967069141566753387e-03 0.000000000000000000e+00
 -7.927221246063709259e-03 9.933363646268844604e-03 0.000000000000000000e+00
 -7.908059284090995789e-03 9.899801574647426605e-03 0.000000000000000000e+00
 -7.888981141149997711e-03 9.866385720670223236e-03 0.000000000000000000e+00
 -7.869988679885864258e-03 9.833119809627532959e-03 0.000000000000000000e+00
 -7.851083762943744659e-03 9.800008498132228851e-03 0.000000000000000000e+00
 -7.832269184291362762e-03 9.767053648829460144e-03 0.000000000000000000e+00
 -7.813545875251293182e-03 9.734260849654674530e-03 0.000000000000000000e+00
 -7.794916629791259766e-03 9.701631031930446625e-03 0.000000000000000000e+00
 -7.776382844895124435e-03 9.669168852269649506e-03 0.000000000000000000e+00
 -7.757946383208036423e-03 9.636878035962581635e-03 0.000000000000000000e+00
 -7.739609107375144958e-03 9.604760445654392242e-03 0.000000000000000000e+00
 -7.721372880041599274e-03 9.572819806635379791e-03 0.000000000000000000e+00
 -7.703239563852548599e-03 9.541057981550693512e-03 0.000000000000000000e+00
 -7.685210090130567551e-03 9.509479627013206482e-03 0.000000000000000000e+00
 -7.667286321520805359e-03 9.478086605668067932e-03 0.000000000000000000e+00
 -7.649470120668411255e-03 9.446881711483001709e-03 0.000000000000000000e+00
 -7.631762884557247162e-03 9.415866807103157043e-03 0.000000000000000000e+00
 -7.614165544509887695e-03 9.385045617818832397e-03 0.000000000000000000e+00
 -7.596680428832769394e-03 9.354419074952602386e-03 0.000000000000000000e+00
 -7.579308003187179565e-03 9.323991835117340088e-03 0.000000000000000000e+00
 -7.562049664556980133e-03 9.293763898313045502e-03 0.000000000000000000e+00
 -7.544906809926033020e-03 9.263738058507442474e-03 0.000000000000000000e+00
 -7.527880836278200150e-03 9.233917109668254852e-03 0.000000000000000000e+00
 -7.510972674936056137e-03 9.204301983118057251e-03 0.000000000000000000e+00
 -7.494183722883462906e-03 9.174895472824573517e-03 0.000000000000000000e+00
 -7.477514445781707764e-03 9.145699441432952881e-03 0.000000000000000000e+00
 -7.460965774953365326e-03 9.116714820265769958e-03 0.000000000000000000e+00
 -7.444539573043584824e-03 9.087944403290748596e-03 0.000000000000000000e+00
 -7.428235840052366257e-03 9.059388190507888794e-03 0.000000000000000000e+00
 -7.412055972963571548e-03 9.031048975884914398e-03 0.000000000000000000e+00
 -7.396000437438488007e-03 9.002927690744400024e-03 0.000000000000000000e+00
 -7.380070164799690247e-03 8.975025266408920288e-03 0.000000000000000000e+00
 -7.364266086369752884e-03 8.947344496846199036e-03 0.000000000000000000e+00
 -7.348588202148675919e-03 8.919884450733661652e-03 0.000000000000000000e+00
 -7.333037443459033966e-03 8.892646990716457367e-03 0.000000000000000000e+00
 -7.317614275962114334e-03 8.865633979439735413e-03 0.000000000000000000e+00
 -7.302319630980491638e-03 8.838845416903495789e-03 0.000000000000000000e+00
 -7.287153974175453186e-03 8.812282234430313110e-03 0.000000000000000000e+00
 -7.272116839885711670e-03 8.785945363342761993e-03 0.000000000000000000e+00
 -7.257209625095129013e-03 8.759834803640842438e-03 0.000000000000000000e+00
 -7.242432329803705215e-03 8.733952417969703674e-03 0.000000000000000000e+00
 -7.227785419672727585e-03 8.708298206329345703e-03 0.000000000000000000e+00
 -7.213268894702196121e-03 8.682872168719768524e-03 0.000000000000000000e+00
 -7.198882754892110825e-03 8.657675236463546753e-03 0.000000000000000000e+00
 -7.184627931565046310e-03 8.632706478238105774e-03 0.000000000000000000e+00
 -7.170503493398427963e-03 8.607968688011169434e-03 0.000000000000000000e+00
 -7.156510837376117706e-03 8.583460003137588501e-03 0.000000000000000000e+00
 -7.142649032175540924e-03 8.559180423617362976e-03 0.000000000000000000e+00
 -7.128918543457984924e-03 8.535131812095642090e-03 0.000000000000000000e+00
 -7.115318905562162399e-03 8.511312305927276611e-03 0.000000000000000000e+00
 -7.101850584149360657e-03 8.487722836434841156e-03 0.000000000000000000e+00
 -7.088513579219579697e-03 8.464362472295761108e-03 0.000000000000000000e+00
 -7.075307425111532211e-03 8.441231213510036469e-03 0.000000000000000000e+00
 -7.062231656163930893e-03 8.418329991400241852e-03 0.000000000000000000e+00
 -7.049287203699350357e-03 8.395656943321228027e-03 0.000000000000000000e+00
 -7.036472670733928680e-03 8.373212069272994995e-03 0.000000000000000000e+00
 -7.023788522928953171e-03 8.350995369255542755e-03 0.000000000000000000e+00
 -7.011233828961849213e-03 8.329006843268871307e-03 0.000000000000000000e+00
 -6.998809054493904114e-03 8.307244628667831421e-03 0.000000000000000000e+00
 -6.986513268202543259e-03 8.285708725452423096e-03 0.000000000000000000e+00
 -6.974346470087766647e-03 8.264398202300071716e-03 0.000000000000000000e+00
 -6.962308194488286972e-03 8.243313059210777283e-03 0.000000000000000000e+00
 -6.950397975742816925e-03 8.222452364861965179e-03 0.000000000000000000e+00
 -6.938615348190069199e-03 8.201815187931060791e-03 0.000000000000000000e+00
 -6.926959846168756485e-03 8.181399665772914886e-03 0.000000000000000000e+00
 -6.915431004017591476e-03 8.161206729710102081e-03 0.000000000000000000e+00
 -6.904027890413999557e-03 8.141234517097473145e-03 0.000000000000000000e+00
 -6.892750971019268036e-03 8.121483027935028076e-03 0.000000000000000000e+00
 -6.881598383188247681e-03 8.101949468255043030e-03 0.000000000000000000e+00
 -6.870570592582225800e-03 8.082633838057518005e-03 0.000000000000000000e+00
 -6.859666667878627777e-03 8.063536137342453003e-03 0.000000000000000000e+00
 -6.848885677754878998e-03 8.044652640819549561e-03 0.000000000000000000e+00
 -6.838227622210979462e-03 8.025985211133956909e-03 0.000000000000000000e+00
 -6.827691104263067245e-03 8.007530122995376587e-03 0.000000000000000000e+00
 -6.817275658249855042e-03 7.989287376403808594e-03 0.000000000000000000e+00
 -6.806980818510055542e-03 7.971256040036678314e-03 0.000000000000000000e+00
 -6.796805653721094131e-03 7.953434251248836517e-03 0.000000000000000000e+00
 -6.786749698221683502e-03 7.935821078717708588e-03 0.000000000000000000e+00
 -6.776812020689249039e-03 7.918414659798145294e-03 0.000000000000000000e+00
 -6.766991689801216125e-03 7.901214994490146637e-03 0.000000000000000000e+00
 -6.757288239896297455e-03 7.884219288825988770e-03 0.000000000000000000e+00
 -6.747700273990631104e-03 7.867426611483097076e-03 0.000000000000000000e+00
 -6.738228257745504379e-03 7.850835099816322327e-03 0.000000000000000000e+00
 -6.728869862854480743e-03 7.834444753825664520e-03 0.000000000000000000e+00
 -6.719625554978847504e-03 7.818252779543399811e-03 0.000000000000000000e+00
 -6.710493471473455429e-03 7.802257779985666275e-03 0.000000000000000000e+00
 -6.701473146677017212e-03 7.786458823829889297e-03 0.000000000000000000e+00
 -6.692564114928245544e-03 7.770854514092206955e-03 0.000000000000000000e+00
 -6.683764979243278503e-03 7.755442988127470016e-03 0.000000000000000000e+00
 -6.675075273960828781e-03 7.740222848951816559e-03 0.000000000000000000e+00
 -6.666493602097034454e-03 7.725192233920097351e-03 0.000000000000000000e+00
 -6.658019963651895523e-03 7.710349746048450470e-03 0.000000000000000000e+00
 -6.649652495980262756e-03 7.695694454014301300e-03 0.000000000000000000e+00
 -6.641390733420848846e-03 7.681224029511213303e-03 0.000000000000000000e+00
 -6.633233744651079178e-03 7.666936609894037247e-03 0.000000000000000000e+00
 -6.625180598348379135e-03 7.652831729501485825e-03 0.000000000000000000e+00
[...]
<CellData>
 <DataArray Name="pos.x" type="Float32" NumberOfComponents="1" format="ascii">
 -8.502133647119554383e-03
 -8.481689148430060499e-03
 -8.461248958927858332e-03
 -8.440815948334848967e-03
 -8.420392982237602519e-03
 -8.399982920439195630e-03
 -8.379588615322772216e-03
 -8.359212910217607428e-03
 -8.338858637780161356e-03
 -8.318528618391017593e-03
 -8.298225658560674095e-03
 -8.277952549357496873e-03
 -8.257712064854231745e-03
 -8.237506960592336919e-03
 -8.217339972072829068e-03
 -8.197213813270085025e-03
 -8.177131175169631214e-03
 -8.157094724341050831e-03
 -8.137107101528427353e-03
 -8.117170920283673860e-03
 -8.097288765627519078e-03
 -8.077463192741534542e-03
 -8.057696725697473944e-03
 -8.037991856229387277e-03
 -8.018351042529903161e-03
 -7.998776708101149741e-03
 -7.979271240629859374e-03
 -7.959836990915179419e-03
 -7.940476271834409280e-03
 -7.921191357347383624e-03
 -7.901984481551042883e-03
 -7.882857837769614157e-03
 -7.863813577698062010e-03
 -7.844853810581512224e-03
 -7.825980602449439036e-03
 -7.807195975385527835e-03
 -7.788501906850350646e-03
 -7.769900329049358664e-03
 -7.751393128341650327e-03
 -7.732982144702052647e-03
 -7.714669171224804688e-03
 -7.696455953672922366e-03
 -7.678344190076053129e-03
 -7.660335530370504346e-03
 -7.642431576087483150e-03
 -7.624633880084617614e-03
 -7.606943946319443504e-03
 -7.589363229669811826e-03
 -7.571893135797556039e-03
 -7.554535021051712700e-03
 -7.537290192413293073e-03
 -7.520159907487238352e-03
 -7.503145374526971195e-03
 -7.486247752500938858e-03
 -7.469468151199975224e-03
 -7.452807631381159689e-03
 -7.436267204943645265e-03
 -7.419847835148817537e-03
 -7.403550436867325363e-03
 -7.387375876864503595e-03
 -7.371324974116304392e-03
 -7.355398500155786549e-03
 -7.339597179453261934e-03
 -7.323921689821822657e-03
 -7.308372662854425474e-03
 -7.292950684384601374e-03
 -7.277656294977948720e-03
 -7.262489990440628394e-03
 -7.247452222359437868e-03
 -7.232543398659115400e-03
 -7.217763884181487878e-03
 -7.203114001289706234e-03
 -7.188594030480163939e-03
 -7.174204211024732408e-03
 -7.159944741622899927e-03
 -7.145815781069677491e-03
 -7.131817448938216827e-03
 -7.117949826276252431e-03
 -7.104212956315541887e-03
 -7.090606845193025108e-03
 -7.077131462674168469e-03
 -7.063786742899434527e-03
 -7.050572585126697704e-03
 -7.037488854485441335e-03
 -7.024535382736492826e-03
 -7.011711969037323806e-03
 -6.999018380713137311e-03
 -6.986454354025711105e-03
 -6.974019594950330025e-03
 -6.961713779953973384e-03
 -6.949536556768369337e-03
 -6.937487545171804396e-03
 -6.925566337765352333e-03
 -6.913772500743324730e-03
 -6.902105574673985874e-03
 -6.890565075261924702e-03
 -6.879150494121306914e-03
 -6.867861299533845054e-03
 -6.856696937209895426e-03
 -6.845656831039797184e-03
 -6.834740383839099133e-03
 -6.823946978091667559e-03
 -6.813275976682288577e-03
 -6.802726723624196413e-03
 -6.792298544773332780e-03
 -6.781990748546165917e-03
 -6.771802626613292880e-03
 -6.761733454601904537e-03
 -6.751782492771549703e-03
 -6.741948986694168422e-03
 -6.732232167914292166e-03
 -6.722631254608957795e-03
 -6.713145452227398981e-03
 -6.703773954128041876e-03
 -6.694515942199432031e-03
 -6.685370587473447868e-03
 -6.676337050727573254e-03
 -6.667414483071317302e-03
 -6.658602026529332127e-03
 -6.649898814606577079e-03
 -6.641303972841543744e-03
 -6.632816619355970736e-03
 -6.624435865380967105e-03
 -6.616160815781945738e-03
 -6.607990569567788117e-03
 -6.599924220384035742e-03
 -6.591960857002468130e-03
 -6.584099563796260053e-03
 -6.576339421194872005e-03
 -6.568679506141906176e-03
 -6.561118892531259301e-03
 -6.553656651632972993e-03
 -6.546291852513159114e-03
 -8.427217190330212396e-03
 -8.406934075692503935e-03
 -8.386655245483107604e-03
 -8.366383552907783600e-03
 -8.346121847053132245e-03
 -8.325872971245597623e-03
 -8.305639761419193398e-03
 -8.285425044485848073e-03
 -8.265231636727989398e-03
 -8.245062342196103969e-03
 -8.224919951122917211e-03
 -8.204807238359312915e-03
 -8.184726961820149374e-03
 -8.164681860966404095e-03
 -8.144674655286562176e-03
 -8.124708042831458449e-03
 -8.104784698747024077e-03
 -8.084907273856361751e-03
 -8.065078393258394429e-03
 -8.045300654964945147e-03
 -8.025576628563766551e-03
 -8.005908853921399684e-03
 -7.986299839917956889e-03
 -7.966752063217929711e-03
 -7.947267967080579726e-03
 -7.927849960205780172e-03
 -7.908500415627055941e-03
 -7.889221669633229156e-03
 -7.870016020743667712e-03
 -7.850885728717288056e-03
 -7.831833013609222974e-03
 -7.812860054873652094e-03
 -7.793968990498188754e-03
 -7.775161916201305846e-03
 -7.756440884661573026e-03
 -7.737807904795178209e-03
 -7.719264941083906970e-03
 -7.700813912942177514e-03
 -7.682456694136335917e-03
 -7.664195112244097212e-03
 -7.646030948164240539e-03
 -7.627965935671455686e-03
 -7.610001761012180274e-03
 -7.592140062556001871e-03
 -7.574382430475762838e-03
 -7.556730406490980850e-03
 -7.539185483641619272e-03
 -7.521749106109466149e-03
 -7.504422669083947277e-03
 -7.487207518670001109e-03
 -7.470104951834275440e-03
 -7.453116216395804135e-03
 -7.436242511058281657e-03
 -7.419484985472330103e-03
 -7.402844740349478342e-03
 -7.386322827601688422e-03
 -7.369920250524799980e-03
 -7.353637964016610136e-03
 -7.337476874823598005e-03
 -7.321437841827909548e-03
 -7.305521676366616944e-03
 -7.289729142575587621e-03
 -7.274060957770137233e-03
 -7.258517792854347200e-03
 -7.243100272753343061e-03
 -7.227808976877308708e-03
 -7.212644439611404397e-03
 -7.197607150824390267e-03
 -7.182697556409045614e-03
 -7.167916058835950739e-03
 -7.153263017737572678e-03
 -7.138738750503404590e-03
 -7.124343532900217872e-03
 -7.110077599706665641e-03
 -7.095941145366729645e-03
 -7.081934324653933743e-03
 -7.068057253357316883e-03
 -7.054310008971637069e-03
 -7.040692631409603726e-03
 -7.027205123714130863e-03
 -7.013847452788614031e-03
 -7.000619550135853998e-03
 -6.987521312598732499e-03
 -6.974552603114733684e-03
 -6.961713251471653846e-03
 -6.949003055071845993e-03
 -6.936421779698430726e-03
 -6.923969160283360673e-03
 -6.911644901684814261e-03
 -6.899448679454770958e-03
 -6.887380140619360144e-03
 -6.875438904449593554e-03
 -6.863624563237218611e-03
 -6.851936683067432789e-03
 -6.840374804585339953e-03
 -6.828938443771087261e-03
 -6.817627092693265105e-03
 -6.806440220276603788e-03
 -6.795377273051983816e-03
 -6.784437675909455075e-03
 -6.773620832839269065e-03
 -6.762926127668294173e-03
 -6.752352924793882626e-03
 -6.741900569905677661e-03
 -6.731568390696352280e-03
 -6.721355697578347554e-03
 -6.711261784371206490e-03
 -6.701285929001660722e-03
 -6.691427394177150781e-03
 -6.681685428060381987e-03
 -6.672059264929972207e-03
 -6.662548125830646158e-03
 -6.653151219216577560e-03
 -6.643867741577247008e-03
 -6.634696878063642451e-03
 -6.625637803090249876e-03
 -6.616689680939391929e-03
 -6.607851666341026282e-03
 -6.599122905054389740e-03
 -6.590502534427948762e-03
 -6.581989683951133471e-03
 -6.573583475796829050e-03
 -6.565283025354855251e-03
 -6.557087441737869012e-03
 -6.548995828299343340e-03
 -6.541007283118104206e-03
 -6.533120899489187026e-03
 -6.525335766387647084e-03
 -6.517650968929142481e-03
 -6.510065588821565066e-03
 -6.502578704794640362e-03
 -6.495189393028255077e-03
 -6.487896727564028930e-03
 -8.351288802459846949e-03
 -8.331170189586154656e-03
 -8.311055835561624583e-03
 -8.290948576535497536e-03
 -8.270851244552073975e-03
 -8.250766665919102502e-03
 -8.230697659578350631e-03
 -8.210647035491019582e-03
 -8.190617593026397816e-03
 -8.170612119372186455e-03
 -8.150633387955515813e-03
 -8.130684156880356797e-03
 -8.110767167386370019e-03
 -8.090885142328273216e-03
 -8.071040784675862292e-03
 -8.051236776040684648e-03
 -8.031475775229173983e-03
 -8.011760416818020786e-03
 -7.992093309769059822e-03
 -7.972477036065328190e-03
 -7.952914149382940209e-03
 -7.933407173800390705e-03
 -7.913958602535506315e-03
 -7.894570896727863898e-03
 -7.875246484246544582e-03
 -7.855987758551149017e-03
 -7.836797077579166562e-03
 -7.817676762682836122e-03
 -7.798629097602332964e-03
 -7.779656327485571024e-03
 -7.760760657943351938e-03
 -7.741944254161499742e-03
 -7.723209240040279297e-03
 -7.704557697392993079e-03
 -7.685991665180915214e-03
 -7.667513138798303512e-03
 -7.649124069397330097e-03
 -7.630826363268908286e-03
 -7.612621881254104383e-03
 -7.594512438218163457e-03
 -7.576499802558925127e-03
 -7.558585695762670177e-03
 -7.540771792007995578e-03
 -7.523059717817399614e-03
 -7.505451051742629935e-03
 -7.487947324108307906e-03
 -7.470550016788926433e-03
 -7.453260563035018528e-03
 -7.436080347340362495e-03
 -7.419010705349286978e-03
 -7.402052923809174234e-03
 -7.385208240561572275e-03
 -7.368477844573529181e-03
 -7.351862876004953279e-03
 -7.335364426323807453e-03
 -7.318983538445390964e-03
 -7.302721206918581093e-03
 -7.286578378140152155e-03
 -7.270555950610614257e-03
 -7.254654775217111128e-03
 -7.238875655549360973e-03
 -7.223219348253465469e-03
 -7.207686563404847556e-03
 -7.192277964919688814e-03
 -7.176994170989349324e-03
 -7.161835754543156331e-03
 -7.146803243735407041e-03
 -7.131897122457955991e-03
 -7.117117830875904598e-03
 -7.102465765985056280e-03
 -7.087941282190235968e-03
 -7.073544691902226671e-03
 -7.059276266158253169e-03
 -7.045136235252871457e-03
 -7.031124789388017333e-03
 -7.017242079344133618e-03
 -7.003488217154200425e-03
 -6.989863276799531018e-03
 -6.976367294917014232e-03
 -6.963000271508131521e-03
 -6.949762170673223771e-03
 -6.936652921341227018e-03
 -6.923672418011787150e-03
 -6.910820521507025742e-03
 -6.898097059725162052e-03
 -6.885501828400470217e-03
 -6.873034591868705176e-03
 -6.860695083834009167e-03
 -6.848483008136107067e-03
 -6.836398039526884844e-03
 -6.824439824437625660e-03
 -6.812607981752262856e-03
 -6.800902103577396822e-03
 -6.789321756012693491e-03
 -6.777866479918688569e-03
 -6.766535791677902659e-03
 -6.755329183958243625e-03
 -6.744246126467405740e-03
 -6.733286066705839422e-03
 -6.722448430709725489e-03
 -6.711732623796962637e-03
 -6.701138031294259431e-03
 -6.690664019268550977e-03
 -6.680309935245785057e-03
 -6.670075108920802201e-03
 -6.659958852864770670e-03
 -6.649960463216040944e-03
 -6.640079220369307124e-03
 -6.630314389652723281e-03
 -6.620665221992117801e-03
 -6.611130954574719401e-03
 -6.601710811490553790e-03
 -6.592404004374539418e-03
 -6.583209733029077998e-03
 -6.574127186045350922e-03
 -6.565155541403737416e-03
 -6.556293967071540399e-03
 -6.547541621583267968e-03
 -6.538897654615297844e-03
 -6.530361207543538063e-03
 -6.521931413992460881e-03
 -6.513607400376797071e-03
 -6.505388286419913797e-03
 -6.497273185673575931e-03
 -6.489261206020639425e-03
 -6.481351450159273352e-03
 -6.473543016089122228e-03
 -6.465834997575572660e-03
 -6.458226484605510305e-03
 -6.450716563834166424e-03
 -6.443304319010936983e-03
 -6.435988831409239323e-03
 -6.428769180231389685e-03
 -8.274348484715136898e-03
 -8.254397495885260061e-03
 -8.234450739506521053e-03
 -8.214511034119548194e-03
 -8.194581194182747400e-03
 -8.174664028436621002e-03
 -8.154762338294117840e-03
 -8.134878916216939024e-03
 -8.115016544126611026e-03
 -8.095177991811393706e-03
 -8.075366015358869179e-03
 -8.055583355597877374e-03
 -8.035832736565079459e-03
 -8.016116863990809666e-03
 -7.996438423804959686e-03
 -7.976800080673283194e-03
 -7.957204476548301528e-03
 -7.937654229267012210e-03
 -7.918151931152117226e-03
 -7.898700147671081778e-03
 -7.879301416105438313e-03
 -7.859958244268388725e-03
 -7.840673109248273015e-03
 -7.821448456192817839e-03
 -7.802286697131143901e-03
 -7.783190209831486982e-03
 -7.764161336698579066e-03
 -7.745202383716960626e-03
 -7.726315619424523919e-03
 -7.707503273942995989e-03
 -7.688767538037113991e-03
 -7.670110562226034774e-03
 -7.651534455936762069e-03
 -7.633041286698215647e-03
 -7.614633079389553083e-03
 -7.596311815520107730e-03
 -7.578079432568659429e-03
 -7.559937823359047689e-03
 -7.541888835482036049e-03
 -7.523934270770977172e-03
 -7.506075884811366609e-03
 -7.488315386504324801e-03
 -7.470654437674321448e-03
 -7.453094652716249491e-03
 -7.435637598294358649e-03
 -7.418284793081277549e-03
 -7.401037707539961583e-03
 -7.383897763753461026e-03
 -7.366866335292960623e-03
 -7.349944747128098720e-03
 -7.333134275581394343e-03
 -7.316436148322372560e-03
 -7.299851544396387774e-03
 -7.283381594300933348e-03
 -7.267027380095119997e-03
 -7.250789935543132218e-03
 -7.234670246302605384e-03
 -7.218669250139975180e-03
 -7.202787837182545068e-03
 -7.187026850207601375e-03
 -7.171387084957511933e-03
 -7.155869290489853991e-03
 -7.140474169556747068e-03
 -7.125202379010643801e-03
 -7.110054530243774436e-03
 -7.095031189643943685e-03
 -7.080132879089057023e-03
 -7.065360076451955573e-03
 -7.050713216141373148e-03
 -7.036192689653753517e-03
 -7.021798846151594206e-03
 -7.007531993063809139e-03
 -6.993392396696085887e-03
 -6.979380282870435714e-03
 -6.965495837566335231e-03
 -6.951739207592022747e-03
 -6.938110501258211958e-03
 -6.924609789073054265e-03
 -6.911237104441363306e-03
 -6.897992444380925646e-03
 -6.884875770244730346e-03
 -6.871887008454397906e-03
 -6.859026051240540295e-03
 -6.846292757387873254e-03
 -6.833686952986755755e-03
 -6.821208432196665221e-03
 -6.808856958000598404e-03
 -6.796632262973000514e-03
 -6.784534050047421987e-03
 -6.772561993280785606e-03
 -6.760715738628179060e-03
 -6.748994904704170433e-03
 -6.737399083557518362e-03
 -6.725927841431737254e-03
 -6.714580719532157321e-03
 -6.703357234786055247e-03
 -6.692256880597855645e-03
 -6.681279127603790419e-03
 -6.670423424419430133e-03
 -6.659689198381999950e-03
 -6.649075856288250326e-03
 -6.638582785122594185e-03
 -6.628209352781092023e-03
 -6.617954908789168596e-03
 -6.607818785007697412e-03
 -6.597800296334208926e-03
 -6.587898741394717338e-03
 -6.578113403223702707e-03
 -6.568443549942092063e-03
 -6.558888435416227077e-03
 -6.549447299916444018e-03
 -6.540119370756572632e-03
 -6.530903862931226704e-03
 -6.521799979738303506e-03
 -6.512806913388476289e-03
 -6.503923845611469731e-03
 -6.495149948244523241e-03
 -6.486484383808764978e-03
 -6.477926306083400983e-03
 -6.469474860658295731e-03
 -6.461129185480891414e-03
 -6.452888411386549332e-03
 -6.444751662628126279e-03
 -6.436718057378487505e-03
 -6.428786708235710232e-03
 -6.420956722703502310e-03
 -6.413227203677011531e-03
 -6.405597249896231166e-03
 -6.398065956404522074e-03
 -6.390632414989736408e-03
 -6.383295714608633320e-03
 -6.376054941812358060e-03
 -6.368909181144134270e-03
 -8.196396237981729699e-03
 -8.176615999414552777e-03
 -8.156839966072663636e-03
 -8.137070938339787535e-03
 -8.117311712536894389e-03
 -8.097565079292535356e-03
 -8.077833821937496772e-03
 -8.058120714896749651e-03
 -8.038428522098206921e-03
 -8.018759995393530057e-03
 -7.999117872992145620e-03
 -7.979504877916966665e-03
 -7.959923716472016089e-03
 -7.940377076739817824e-03
 -7.920867627091123658e-03
 -7.901398014727202546e-03
 -7.881970864242825170e-03
 -7.862588776224522374e-03
 -7.843254325862990262e-03
 -7.823970061615235019e-03
 -7.804738503881833260e-03
 -7.785562143732937222e-03
 -7.766443441653873674e-03
 -7.747384826338739143e-03
 -7.728388693516582801e-03
 -7.709457404816341328e-03
 -7.690593286668950639e-03
 -7.671798629255394825e-03
 -7.653075685491117497e-03
 -7.634426670053089115e-03
 -7.615853758452394325e-03
 -7.597359086145060413e-03
 -7.578944747693885757e-03
 -7.560612795968230972e-03
 -7.542365241390494926e-03
 -7.524204051229693713e-03
 -7.506131148936951401e-03
 -7.488148413530684548e-03
 -7.470257679021751265e-03
 -7.452460733889196970e-03
 -7.434759320599408118e-03
 -7.417155135167502120e-03
 -7.399649826772936034e-03
 -7.382244997407847766e-03
 -7.364942201577574267e-03
 -7.347742946045490199e-03
 -7.330648689616844904e-03
 -7.313660842969406557e-03
 -7.296780768525746620e-03
 -7.280009780364884303e-03
 -7.263349144180659273e-03
 -7.246800077272309501e-03
 -7.230363748582688960e-03
 -7.214041278769981955e-03
 -7.197833740321481037e-03
 -7.181742157697582063e-03
 -7.165767507520684303e-03
 -7.149910718791214689e-03
 -7.134172673142278286e-03
 -7.118554205128167084e-03
 -7.103056102537483665e-03
 -7.087679106747585972e-03
 -7.072423913100531374e-03
 -7.057291171312154825e-03
 -7.042281485906010802e-03
 -7.027395416675122006e-03
 -7.012633479171508782e-03
 -6.997996145211035288e-03
 -6.983483843414219072e-03
 -6.969096959755801020e-03
 -6.954835838145851691e-03
 -6.940700781022712818e-03
 -6.926692049966879511e-03
 -6.912809866334932406e-03
 -6.899054411904618003e-03
 -6.885425829537152216e-03
 -6.871924223856968293e-03
 -6.858549661935345321e-03
 -6.845302173996081589e-03
 -6.832181754124506436e-03
 -6.819188360990581510e-03
 -6.806321918574877346e-03
 -6.793582316911694202e-03
 -6.780969412828343097e-03
 -6.768483030696382553e-03
 -6.756122963187939819e-03
 -6.743888972031940147e-03
 -6.731780788776443175e-03
 -6.719798115552805089e-03
 -6.707940625840198151e-03
 -6.696207965230890902e-03
 -6.684599752195349680e-03
 -6.673115578848670681e-03
 -6.661755011709289895e-03
 -6.650517592463675229e-03
 -6.639402838719768961e-03
 -6.628410244762313226e-03
 -6.617539282302150813e-03
 -6.606789401220717305e-03
 -6.596160030306674922e-03
 -6.585650577992324325e-03
 -6.575260433077057161e-03
 -6.564988965449999360e-03
 -6.554835526798388941e-03
 -6.544799451316226160e-03
 -6.534880056395657964e-03
 -6.525076643320342623e-03
 -6.515388497941472339e-03
 -6.505814891342722242e-03
 -6.496355080509723552e-03
 -6.487008308974842076e-03
 -6.477773807452957833e-03
 -6.468650794482754159e-03
 -6.459638477034377463e-03
 -6.450736051127797625e-03
 -6.441942702422552396e-03
 -6.433257606810262146e-03
 -6.424679930986815397e-03
 -6.416208833020881075e-03
 -6.407843462901336058e-03
 -6.399582963084203546e-03
 -6.391426469019838991e-03
 -6.383373109672079056e-03
 -6.375422008025396700e-03
 -6.367572281580620094e-03
 -6.359823042838857153e-03
 -6.352173399772705412e-03
 -6.344622456287575714e-03
 -6.337169312671210239e-03
 -6.329813066029150136e-03
 -6.322552810714874953e-03
 -6.315387638739095033e-03
 -6.308316640178482718e-03
 -8.117432062825958791e-03
 -8.097825704041683795e-03
 -8.078223522423842728e-03
 -8.058628299649260238e-03
 -8.039042813345619737e-03
 -8.019469835479773462e-03
 -7.999912130752281914e-03
 -7.980372455000141196e-03
 -7.960853553614376937e-03
 -7.941358159968436858e-03
 -7.921888993854596037e-03
 -7.902448759952648838e-03
 -7.883040146305331577e-03
 -7.863665822816709450e-03
 -7.844328439776686659e-03
 -7.825030626405592507e-03
 -7.805774989427530924e-03
 -7.786564111669514072e-03
 -7.767400550690894620e-03
 -7.748286837442957924e-03
 -7.729225474959141619e-03
 -7.710218937080954953e-03
 -7.691269667219583980e-03
 -7.672380077146619300e-03
 -7.653552545832120052e-03
 -7.634789418313448449e-03
 -7.616093004605217244e-03
 -7.597465578649993667e-03
 -7.578909377311614237e-03
 -7.560426599406700789e-03
 -7.542019404781817073e-03
 -7.523689913433611806e-03
 -7.505440204667340742e-03
 -7.487272316311394289e-03
 -7.469188243961479359e-03
 -7.451189940283736712e-03
 -7.433279314351065245e-03
 -7.415458231034950491e-03
 -7.397728510432933884e-03
 -7.380091927350156816e-03
 -7.362550210821598717e-03
 -7.345105043678482049e-03
 -7.327758062162385670e-03
 -7.310510855582788743e-03
 -7.293364966018706097e-03
 -7.276321888065530492e-03
 -7.259383068622061487e-03
 -7.242549906723923410e-03
 -7.225823753418386848e-03
 -7.209205911677589104e-03
 -7.192697636359306895e-03
 -7.176300134200160573e-03
 -7.160014563853574210e-03
 -7.143842035965919553e-03
 -7.127783613287107245e-03
 -7.111840310820662960e-03
 -7.096013096010536300e-03
 -7.080302888958750485e-03
 -7.064710562680441390e-03
 -7.049236943390687141e-03
 -7.033882810825541239e-03
 -7.018648898585056785e-03
 -7.003535894519517455e-03
 -6.988544441130054539e-03
 -6.973675136010549537e-03
 -6.958928532300035288e-03
 -6.944305139177243957e-03
 -6.929805422364583231e-03
 -6.915429804663175348e-03
 -6.901178666508410962e-03
 -6.887052346541736557e-03
 -6.873051142208771482e-03