<VTKFile type="UnstructuredGrid" byte_order="BigEndian">
<UnstructuredGrid><Piece NumberOfPoints="660" NumberOfCells="608">
<Points>
 <DataArray type="Float32" NumberOfComponents="3" format="ascii">
 -6.004475522786378860e-03 6.348760332912206650e-03 0.000000000000000000e+00
 -5.995574407279491425e-03 6.332484539598226547e-03 0.000000000000000000e+00
 -5.985807627439498901e-03 6.314625497907400131e-03 0.000000000000000000e+00
 -5.975109059363603592e-03 6.295063532888889313e-03 0.000000000000000000e+00
 -5.963417235761880875e-03 6.273684557527303696e-03 0.000000000000000000e+00
 -5.950674414634704590e-03 6.250384263694286346e-03 0.000000000000000000e+00
 -5.936831701546907425e-03 6.225072313100099564e-03 0.000000000000000000e+00
 -5.921850446611642838e-03 6.197679322212934494e-03 0.000000000000000000e+00
 -5.905708298087120056e-03 6.168163381516933441e-03 0.000000000000000000e+00
 -5.888400599360466003e-03 6.136515643447637558e-03 0.000000000000000000e+00
 -5.869944114238023758e-03 6.102767307311296463e-03 0.000000000000000000e+00
 -5.850378889590501785e-03 6.066992413252592087e-03 0.000000000000000000e+00
 -5.829772446304559708e-03 6.029312964528799057e-03 0.000000000000000000e+00
 -5.808215122669935226e-03 5.989895667880773544e-03 0.000000000000000000e+00
 -5.785822868347167969e-03 5.948950536549091339e-03 0.000000000000000000e+00
 -5.762730259448289871e-03 5.906725302338600159e-03 0.000000000000000000e+00
 -5.739088170230388641e-03 5.863495171070098877e-03 0.000000000000000000e+00
 -5.715056322515010834e-03 5.819553043693304062e-03 0.000000000000000000e+00
 -5.690797697752714157e-03 5.775195546448230743e-03 0.000000000000000000e+00
 -5.666469689458608627e-03 5.730711854994297028e-03 0.000000000000000000e+00
 -5.642220377922058105e-03 5.686371121555566788e-03 0.000000000000000000e+00
 -5.618181545287370682e-03 5.642415955662727356e-03 0.000000000000000000e+00
 -5.594466347247362137e-03 5.599052645266056061e-03 0.000000000000000000e+00
 -5.571167450398206711e-03 5.556450225412845612e-03 0.000000000000000000e+00
 -5.548356100916862488e-03 5.514738615602254868e-03 0.000000000000000000e+00
 -5.526082590222358704e-03 5.474011413753032684e-03 0.000000000000000000e+00
 -5.504380445927381516e-03 5.434329155832529068e-03 0.000000000000000000e+00
 -5.483268294483423233e-03 5.395724903792142868e-03 0.000000000000000000e+00
 -5.462750792503356934e-03 5.358208902180194855e-03 0.000000000000000000e+00
 -5.442826077342033386e-03 5.321776028722524643e-03 0.000000000000000000e+00
 -5.423484835773706436e-03 5.286409985274076462e-03 0.000000000000000000e+00
 -5.404713097959756851e-03 5.252086091786623001e-03 0.000000000000000000e+00
 -5.386497359722852707e-03 5.218778271228075027e-03 0.000000000000000000e+00
 -5.946980789303779602e-03 6.426252890378236771e-03 0.000000000000000000e+00
 -5.938113201409578323e-03 6.409678608179092407e-03 0.000000000000000000e+00
 -5.928386468440294266e-03 6.391498260200023651e-03 0.000000000000000000e+00
 -5.917736329138278961e-03 6.371592637151479721e-03 0.000000000000000000e+00
 -5.906101316213607788e-03 6.349845789372920990e-03 0.000000000000000000e+00
 -5.893424618989229202e-03 6.326151546090841293e-03 0.000000000000000000e+00
 -5.879657343029975891e-03 6.300419569015502930e-03 0.000000000000000000e+00
 -5.864761769771575928e-03 6.272578611969947815e-03 0.000000000000000000e+00
 -5.848715547472238541e-03 6.242586765438318253e-03 0.000000000000000000e+00
 -5.831513088196516037e-03 6.210434250533580780e-03 0.000000000000000000e+00
 -5.813171155750751495e-03 6.176151800900697708e-03 0.000000000000000000e+00
 -5.793729797005653381e-03 6.139813922345638275e-03 0.000000000000000000e+00
 -5.773253738880157471e-03 6.101542152464389801e-03 0.000000000000000000e+00
 -5.751832388341426849e-03 6.061504129320383072e-03 0.000000000000000000e+00
 -5.729579366743564606e-03 6.019911263138055801e-03 0.000000000000000000e+00
 -5.706626921892166138e-03 5.977011751383543015e-03 0.000000000000000000e+00
 -5.683124065399169922e-03 5.933083128184080124e-03 0.000000000000000000e+00
 -5.659227725118398666e-03 5.888418760150671005e-03 0.000000000000000000e+00
 -5.635097622871398926e-03 5.843317601829767227e-03 0.000000000000000000e+00
 -5.610889755189418793e-03 5.798070691525936127e-03 0.000000000000000000e+00
 -5.586748942732810974e-03 5.752949509769678116e-03 0.000000000000000000e+00
 -5.562806036323308945e-03 5.708198063075542450e-03 0.000000000000000000e+00
 -5.539172329008579254e-03 5.664024967700242996e-03 0.000000000000000000e+00
 -5.515939090400934219e-03 5.620600190013647079e-03 0.000000000000000000e+00
 -5.493177101016044617e-03 5.578056443482637405e-03 0.000000000000000000e+00
 -5.470937583595514297e-03 5.536488257348537445e-03 0.000000000000000000e+00
 -5.449253134429454803e-03 5.495958495885133743e-03 0.000000000000000000e+00
 -5.428142379969358444e-03 5.456501152366399765e-03 0.000000000000000000e+00
 -5.407612770795822144e-03 5.418129265308380127e-03 0.000000000000000000e+00
 -5.387661512941122055e-03 5.380838643759489059e-03 0.000000000000000000e+00
 -5.368280690163373947e-03 5.344614386558532715e-03 0.000000000000000000e+00
 -5.349458195269107819e-03 5.309434141963720322e-03 0.000000000000000000e+00
 -5.331181455403566360e-03 5.275272764265537262e-03 0.000000000000000000e+00
 -5.888780578970909119e-03 6.503328680992126465e-03 0.000000000000000000e+00
 -5.879947915673255920e-03 6.486453115940093994e-03 0.000000000000000000e+00
 -5.870263092219829559e-03 6.467950064688920975e-03 0.000000000000000000e+00
 -5.859663244336843491e-03 6.447697989642620087e-03 0.000000000000000000e+00
 -5.848086904734373093e-03 6.425580941140651703e-03 0.000000000000000000e+00
 -5.835478194057941437e-03 6.401490885764360428e-03 0.000000000000000000e+00
 -5.821788683533668518e-03 6.375336553901433945e-03 0.000000000000000000e+00
 -5.806981585919857025e-03 6.347046233713626862e-03 0.000000000000000000e+00
 -5.791033618152141571e-03 6.316576618701219559e-03 0.000000000000000000e+00
 -5.773939657956361771e-03 6.283917464315891266e-03 0.000000000000000000e+00
 -5.755715537816286087e-03 6.249099504202604294e-03 0.000000000000000000e+00
 -5.736400838941335678e-03 6.212196778506040573e-03 0.000000000000000000e+00
 -5.716058425605297089e-03 6.173331290483474731e-03 0.000000000000000000e+00
 -5.694776307791471481e-03 6.132671143859624863e-03 0.000000000000000000e+00
 -5.672666244208812714e-03 6.090428214520215988e-03 0.000000000000000000e+00
 -5.649858620017766953e-03 6.046852562576532364e-03 0.000000000000000000e+00
 -5.626498721539974213e-03 6.002222187817096710e-03 0.000000000000000000e+00
 -5.602741613984107971e-03 5.956832785159349442e-03 0.000000000000000000e+00
 -5.578744690865278244e-03 5.910984240472316742e-03 0.000000000000000000e+00
 -5.554660223424434662e-03 5.864969920367002487e-03 0.000000000000000000e+00
 -5.530632566660642624e-03 5.819063168019056320e-03 0.000000000000000000e+00
 -5.506789777427911758e-03 5.773509386926889420e-03 0.000000000000000000e+00
 -5.483241751790046692e-03 5.728519521653652191e-03 0.000000000000000000e+00
 -5.460078828036785126e-03 5.684265401214361191e-03 0.000000000000000000e+00
 -5.437371321022510529e-03 5.640880670398473740e-03 0.000000000000000000e+00
 -5.415169522166252136e-03 5.598462652415037155e-03 0.000000000000000000e+00
 -5.393506959080696106e-03 5.557075608521699905e-03 0.000000000000000000e+00
 -5.372402723878622055e-03 5.516754928976297379e-03 0.000000000000000000e+00
 -5.351864732801914215e-03 5.477515049278736115e-03 0.000000000000000000e+00
 -5.331891123205423355e-03 5.439354572445154190e-03 0.000000000000000000e+00
 -5.312475375831127167e-03 5.402259062975645065e-03 0.000000000000000000e+00
 -5.293606780469417572e-03 5.366208963096141815e-03 0.000000000000000000e+00
 -5.275272764265537262e-03 5.331181455403566360e-03 0.000000000000000000e+00
 -5.829878617078065872e-03 6.579976994544267654e-03 0.000000000000000000e+00
 -5.821082275360822678e-03 6.562797818332910538e-03 0.000000000000000000e+00
 -5.811441224068403244e-03 6.543969269841909409e-03 0.000000000000000000e+00
 -5.800893530249595642e-03 6.523369345813989639e-03 0.000000000000000000e+00
 -5.789378192275762558e-03 6.500879768282175064e-03 0.000000000000000000e+00
 -5.776839796453714371e-03 6.476392038166522980e-03 0.000000000000000000e+00
 -5.763230845332145691e-03 6.449813954532146454e-03 0.000000000000000000e+00
 -5.748514086008071899e-03 6.421072408556938171e-03 0.000000000000000000e+00
 -5.732667166739702225e-03 6.390123162418603897e-03 0.000000000000000000e+00
 -5.715684499591588974e-03 6.356955971568822861e-03 0.000000000000000000e+00
 -5.697581451386213303e-03 6.321600638329982758e-03 0.000000000000000000e+00
 -5.678396206349134445e-03 6.284132134169340134e-03 0.000000000000000000e+00
 -5.658191163092851639e-03 6.244671065360307693e-03 0.000000000000000000e+00
 -5.637052003294229507e-03 6.203387398272752762e-03 0.000000000000000000e+00
 -5.615088623017072678e-03 6.160492543131113052e-03 0.000000000000000000e+00
 -5.592429079115390778e-03 6.116238422691822052e-03 0.000000000000000000e+00
 -5.569216329604387283e-03 6.070903968065977097e-03 0.000000000000000000e+00
 -5.545602645725011826e-03 6.024786271154880524e-03 0.000000000000000000e+00
 -5.521742627024650574e-03 5.978187546133995056e-03 0.000000000000000000e+00
 -5.497786682099103928e-03 5.931401625275611877e-03 0.000000000000000000e+00
 -5.473876371979713440e-03 5.884704180061817169e-03 0.000000000000000000e+00
 -5.450137890875339508e-03 5.838342942297458649e-03 0.000000000000000000e+00
 -5.426679737865924835e-03 5.792529322206974030e-03 0.000000000000000000e+00
 -5.403591785579919815e-03 5.747438408434391022e-03 0.000000000000000000e+00
 -5.380942951887845993e-03 5.703205242753028870e-03 0.000000000000000000e+00
 -5.358783528208732605e-03 5.659928079694509506e-03 0.000000000000000000e+00
 -5.337147507816553116e-03 5.617673043161630630e-03 0.000000000000000000e+00
 -5.316054448485374451e-03 5.576478317379951477e-03 0.000000000000000000e+00
[...]
<CellData>
 <DataArray Name="pos.x" type="Float32" NumberOfComponents="1" format="ascii">
 -5.971244610519448048e-03
 -5.961931129412488713e-03
 -5.951722671584101267e-03
 -5.940555881489850872e-03
 -5.928371207716954736e-03
 -5.915115618979858991e-03
 -5.900745716128541658e-03
 -5.885231120998757337e-03
 -5.868557949142979430e-03
 -5.850732098342963962e-03
 -5.831782022019693992e-03
 -5.811760623304003046e-03
 -5.790745919103814678e-03
 -5.768840196725045014e-03
 -5.746167520928810446e-03
 -5.722869634508113805e-03
 -5.699100503069972311e-03
 -5.675019946271763101e-03
 -5.650786933258523936e-03
 -5.626553169037884668e-03
 -5.602457549687800409e-03
 -5.578621928888399979e-03
 -5.555148446715786961e-03
 -5.532118464048393393e-03
 -5.509592960834876728e-03
 -5.487614121471199452e-03
 -5.466207757917742292e-03
 -5.445386208529541701e-03
 -5.425151385045471654e-03
 -5.405497704271538216e-03
 -5.386414717388318847e-03
 -5.367889324797293915e-03
 -5.913413556170587192e-03
 -5.904137736468261649e-03
 -5.893974495402887724e-03
 -5.882861200931526272e-03
 -5.870738964261319574e-03
 -5.857555313319806264e-03
 -5.843267255958805445e-03
 -5.827844615710476087e-03
 -5.811273450377899517e-03
 -5.793559289843801079e-03
 -5.774729867747930082e-03
 -5.754836988873435547e-03
 -5.733957187410727158e-03
 -5.712190903253653966e-03
 -5.689660036499311416e-03
 -5.666503922407001292e-03
 -5.642873973164714251e-03
 -5.618927421131094530e-03
 -5.594820731434198280e-03
 -5.570703299965931200e-03
 -5.546712004780416164e-03
 -5.522967045793606040e-03
 -5.499569319347708159e-03
 -5.476599370146969029e-03
 -5.454117781104120266e-03
 -5.432166728941492662e-03
 -5.410772362045179751e-03
 -5.389947644661915831e-03
 -5.369695345466328137e-03
 -5.350010911577220488e-03
 -5.330885044250815302e-03
 -5.312305866239302315e-03
 -5.854879555350071818e-03
 -5.845643094645409758e-03
 -5.835526900933293848e-03
 -5.824469073632408851e-03
 -5.812411394181071431e-03
 -5.799301956734015558e-03
 -5.785098182264123735e-03
 -5.769770100917754642e-03
 -5.753303716131742858e-03
 -5.735704191432000783e-03
 -5.716998540105776988e-03
 -5.697237465700499826e-03
 -5.676496014395121872e-03
 -5.654872770996592114e-03
 -5.632487461052994651e-03
 -5.609477000503142533e-03
 -5.585990234842820416e-03
 -5.562181794876767948e-03
 -5.538205627009560629e-03
 -5.514208803370458309e-03
 -5.490326169848905140e-03
 -5.466676259296437794e-03
 -5.443358712083614867e-03
 -5.420453245654282062e-03
 -5.398020035926922797e-03
 -5.376101243011732582e-03
 -5.354723343631807506e-03
 -5.333899920488735166e-03
 -5.313634592208075352e-03
 -5.293923829507899727e-03
 -5.274759477130752834e-03
 -5.256130873606251058e-03
 -5.795646630238985783e-03
 -5.786451257744978753e-03
 -5.776383974389321350e-03
 -5.765383618964055150e-03
 -5.753392650712367204e-03
 -5.740359737008936952e-03
 -5.726242718086936578e-03
 -5.711011835678731288e-03
 -5.694653042352657013e-03
 -5.677171136995061949e-03
 -5.658592412213091401e-03
 -5.638966467757891912e-03
 -5.618366856900482501e-03
 -5.596890302155546441e-03
 -5.574654345163868908e-03
 -5.551793471317497362e-03
 -5.528453946726108979e-03
 -5.504787786948245852e-03
 -5.480946405479058745e-03
 -5.457074536489664451e-03
 -5.433304979920632397e-03
 -5.409754588509479989e-03
 -5.386521734542784254e-03
 -5.363685297119430602e-03
 -5.341305035084545696e-03
 -5.319423082762479368e-03
 -5.298066236786737500e-03
 -5.277248690450890047e-03
 -5.256974904848994538e-03
 -5.237242367030734390e-03
 -5.218044058041557479e-03
 -5.199370524995246962e-03
 -5.735718878990017817e-03
 -5.726566355310503016e-03
 -5.716549877425551943e-03
 -5.705609031345832555e-03
 -5.693686961648245295e-03
 -5.680732915901352993e-03
 -5.666705159744422730e-03
 -5.651574151525702930e-03
 -5.635325796555320024e-03
 -5.617964530976237401e-03
 -5.599515926646998071e-03
 -5.580028477297304008e-03
 -5.559574238813166577e-03
 -5.538248064702967766e-03
 -5.516165303895446091e-03
 -5.493458000603747629e-03
 -5.470269829465342591e-03
 -5.446750177694567596e-03
 -5.423047912243858862e-03
 -5.399305415611142800e-03
 -5.375653428385520835e-03
 -5.352207110407918370e-03
 -5.329063553911997202e-03
 -5.306300788575626579e-03
 -5.283978145976685539e-03
 -5.262137725242936083e-03
 -5.240806634146487689e-03
 -5.219999668275925389e-03
 -5.199722123199988777e-03
 -5.179972494465189849e-03
 -5.160744891624925897e-03
 -5.142031062545128831e-03
 -5.675100475723282578e-03
 -5.665992592618121146e-03
 -5.656028847107867803e-03
 -5.645149580203589514e-03
 -5.633298629291463681e-03
 -5.620425829074319687e-03
 -5.606489876753264698e-03
 -5.591461452375623767e-03
 -5.575326417714953145e-03
 -5.558088848255170189e-03
 -5.539773595303240303e-03
 -5.520428044694160666e-03
 -5.500122750887411795e-03
 -5.478950692189525108e-03
 -5.457025016589744232e-03
 -5.434475317114538864e-03
 -5.411442665482760726e-03
 -5.388073808096275827e-03
 -5.364515052311306584e-03
 -5.340906415744979541e-03
 -5.317376566641884850e-03
 -5.294038959450486116e-03
 -5.270989394537891302e-03
 -5.248305041107149786e-03
 -5.226044793159505090e-03
 -5.204250704975659989e-03
 -5.182950186349928948e-03
 -5.162158626420771182e-03
 -5.141882146716847402e-03
 -5.122120242862173052e-03
 -5.102868144496557935e-03
 -5.084118791752368846e-03
 -5.613795670517747645e-03
 -5.604734250654082664e-03
 -5.594825195888442938e-03
 -5.584009609935508371e-03
 -5.572232030402330706e-03
 -5.559442886036148473e-03
 -5.545601311753773667e-03
 -5.530678214436778907e-03
 -5.514659416161891287e-03
 -5.497548634026548815e-03
 -5.479369999258762967e-03
 -5.460169788292179756e-03
 -5.440017050575817088e-03
 -5.419002883552714520e-03
 -5.397238226655828169e-03
 -5.374850212369484438e-03
 -5.351977298720391255e-03
 -5.328763579487306480e-03
 -5.305352789992495190e-03
 -5.281882570299191448e-03
 -5.258479503745635414e-03
 -5.235255327201420762e-03
 -5.212304537522960239e-03
 -5.189703432412780433e-03
 -5.167510457876832095e-03
 -5.145767613463770977e-03
 -5.124502601511459095e-03
 -5.103731395514067050e-03
 -5.083460933908537024e-03
 -5.063691703379951010e-03
 -5.044420044589313125e-03
 -5.025640080777946453e-03
 -5.551808789406589666e-03
 -5.542795686104573863e-03
 -5.532943311578759557e-03
 -5.522193539869348772e-03
 -5.510491616149959353e-03
 -5.497788570075426082e-03
 -5.484043980431702048e-03
 -5.469228986120396735e-03
 -5.453329373476116168e-03
 -5.436348503678778941e-03
 -5.418309788635820336e-03
 -5.399258394251581564e-03
 -5.379261861853393105e-03
 -5.358409402925467038e-03
 -5.336809741358327676e-03
 -5.314587540423491505e-03
 -5.291878634386070444e-03
 -5.268824453281467125e-03
 -5.245566148603627785e-03
 -5.222238970754817383e-03
 -5.198967406060887690e-03
 -5.175861461953181787e-03
 -5.153014320318279745e-03
 -5.130501396372082711e-03
 -5.108380677600990113e-03
 -5.086694098691641776e-03
 -5.065469644693577564e-03
 -5.044723863794463130e-03
 -5.024464501742665831e-03
 -5.004693026654362907e-03
 -4.985406880489100419e-03
 -4.966601359749135171e-03
 -5.489144234374373696e-03
 -5.480181331334989595e-03
 -5.470387657321951376e-03
 -5.459705864228096665e-03
 -5.448081912059658284e-03
 -5.435467438197960806e-03
 -5.421822471442423914e-03
 -5.407118387948413665e-03
 -5.391340942381466807e-03
 -5.374493142673938788e-03
 -5.356597682463976225e-03
 -5.337698616392693926e-03
 -5.317861975049451885e-03
 -5.297175079447044750e-03
 -5.275744431609965396e-03
 -5.253692217638358634e-03
 -5.231151638702068521e-03
 -5.208261450697201402e-03
 -5.185160210168938098e-03
 -5.161980766343630088e-03
 -5.138845496910978035e-03
 -5.115862668349816997e-03
 -5.093124136320059496e-03
 -5.070704422610474923e-03
 -5.048661045561599059e-03
 -5.027035864630479203e-03
 -5.005857137375859661e-03
 -4.985141976547479391e-03
 -4.964898925047027400e-03
 -4.945130422167014726e-03
 -4.925835000766455411e-03
 -4.907009120055213537e-03
 -5.425806483347141856e-03
 -5.416895694377395556e-03
 -5.407162771567282367e-03
 -5.396551152087514756e-03
 -5.385007517963861720e-03
 -5.372484121063842398e-03
 -5.358941446334576815e-03
 -5.344351112464978092e-03
 -5.328698846641975913e-03
 -5.311987306427095289e-03
 -5.294238468544230046e-03
 -5.275495276045218639e-03
 -5.255822246676385319e-03
 -5.235304807074106850e-03
 -5.214047231761657041e-03
 -5.192169222453470526e-03
 -5.169801338656133428e-03
 -5.147079652485350189e-03
 -5.124140115124183742e-03
 -5.101113163727351990e-03
 -5.078119056229616311e-03
 -5.055264307012394959e-03
 -5.032639434464756048e-03
 -5.010318056064946672e-03
 -4.988357210284529927e-03
 -4.966798670739083765e-03
 -4.945670956924467718e-03
 -4.924991735538787954e-03
 -4.904770335909116631e-03
 -4.885010157606918361e-03
 -4.865710813302031278e-03
 -4.846869913635955263e-03
 -5.361800090192524355e-03
 -5.352943358911785472e-03
 -5.343273268041289631e-03
 -5.332734047341588547e-03
 -5.321273107950601211e-03
 -5.308843322923690981e-03
 -5.295405639472576011e-03
 -5.280931924143337369e-03
 -5.265407880956010124e-03
 -5.248835820187145937e-03
 -5.231237003314130780e-03
 -5.212653261895476911e-03
 -5.193147599259266729e-03
 -5.172803544393367314e-03
 -5.151723139397525186e-03
 -5.130023595158819845e-03
 -5.107832821752681177e-03
 -5.085284198659478436e-03
 -5.062511062021235811e-03
 -5.039641426677051415e-03
 -5.016793420216374144e-03
 -4.994071794165011631e-03
 -4.971565718826101779e-03
 -4.949347896550996412e-03
 -4.927474875124317893e-03
 -4.905988331464820884e-03
 -4.884917036058528464e-03
 -4.864279198447344493e-03
 -4.844084923071397333e-03
 -4.824338558230335285e-03
 -4.805040784609043540e-03
 -4.786190352265302060e-03
 -5.297129684708267762e-03
 -5.288328984253560724e-03
 -5.278723835720680081e-03
 -5.268259268660245055e-03
 -5.256883430312689516e-03
 -5.244549821555384746e-03
 -5.231219857960969256e-03
 -5.216865659297265437e-03
 -5.201472910851255051e-03
 -5.185043578915741157e-03
 -5.167598211711335772e-03
 -5.149177529834716473e-03
 -5.129843021169090168e-03
 -5.109676314434334100e-03
 -5.088777215127863497e-03
 -5.067260437670259923e-03
 -5.045251235765902190e-03
 -5.022880288225062273e-03
 -5.000278307237251627e-03
 -4.977570875755488698e-03
 -4.954873980991623267e-03
 -4.932290601261823081e-03
 -4.909908548213552833e-03
 -4.887799598328843899e-03
 -4.866019797797800119e-03
 -4.844610715745736179e-03
 -4.823601362316655254e-03
 -4.803010478294106496e-03
 -4.782848931324053601e-03
 -4.763122006214693532e-03
 -4.743831439148052560e-03
 -4.724977106827629204e-03
 -5.231799972622860374e-03
 -5.223057305334182117e-03
 -5.213519238807503946e-03
 -5.203131609451449105e-03
 -5.191843307496481208e-03
 -5.179608468200166613e-03
 -5.166388981566513890e-03
 -5.152157225990662906e-03
 -5.136898872581084630e-03
 -5.120615547169669185e-03
 -5.103327087041179336e-03
 -5.085073102809042379e-03
 -5.065913566453678248e-03
 -5.045928204485160447e-03
 -5.025214582386782966e-03
 -5.003884913304555357e-03
 -4.982061788496090771e-03
 -4.959873178913424066e-03
 -4.937447164680884570e-03
 -4.914906888001917794e-03
 -4.892366186252467865e-03
 -4.869926254615646391e-03
 -4.847673535769955570e-03
 -4.825678869671080722e-03
 -4.803997789921848373e-03
 -4.782671746509512684e-03
 -4.761729977521346989e-03
 -4.741191742870116618e-03
 -4.721068660895126091e-03
 -4.701366940010161082e-03
 -4.682089358639342572e-03
 -4.663236906589191162e-03
 -5.165815735585453476e-03
 -5.157133132687018867e-03
 -5.147664316699626305e-03
 -5.137355937824408109e-03
 -5.126157636051738298e-03
 -5.114024187498945190e-03
 -5.100917962642027674e-03
 -5.086811603946438977e-03
 -5.071690773021047573e-03
 -5.055556758981756028e-03
 -5.038428690839885475e-03
 -5.020345070668764086e-03
 -5.001364354672726414e-03
 -4.981564365907988762e-03
 -4.961040427227588270e-03
 -4.939902246558505738e-03
 -4.918269747524539083e-03
 -4.896268186916441154e-03
 -4.874023005505924606e-03
 -4.851654896615729094e-03
 -4.829275538933683332e-03
 -4.806984335029090664e-03
 -4.784866348572760532e-03
 -4.762991472431081508e-03
 -4.741414716544819358e-03
 -4.720177400174517535e-03
 -4.699308977242177936e-03
 -4.678829214163144484e-03
 -4.658750466837859733e-03
 -4.639079853686311691e-03
 -4.619821181368606415e-03
 -4.600976538463127929e-03
 -5.099181831164405036e-03
 -5.090561352431278129e-03
 -5.081163983963617702e-03
 -5.070937196546179693e-03
 -5.059831386578929335e-03
 -5.047801977429345992e-03
 -5.034811826050778275e-03
 -5.020833844458120337e-03
 -5.005853689562229578e-03
 -4.989872317741835678e-03
 -4.972908152744009123e-03
 -4.954998590020473839e-03
 -4.936200570730445505e-03
 -4.916590013956059595e-03
 -4.896259998123890858e-03
 -4.875317722887070188e-03
 -4.853880439973853878e-03
 -4.832070686622467158e-03
 -4.810011257822157174e-03
 -4.787820390646181992e-03
 -4.765607596865843905e-03
 -4.743470477425252609e-03
 -4.721492707234907667e-03
 -4.699743221612611224e-03
 -4.678276495683677573e-03
 -4.657133706149184198e-03
 -4.636344510259577355e-03
 -4.615929167780429693e-03
 -4.595900758413878559e-03
 -4.576267296276477492e-03
 -4.557033601489397616e-03
 -4.538202846268377284e-03
 -5.031903192839332940e-03
 -5.023346926254889343e-03
 -5.014023230308166032e-03
 -5.003880403007938266e-03
 -4.992869603679723871e-03
 -4.980946909240648902e-03
 -4.968075669088112788e-03
 -4.954229070297959392e-03
 -4.939392770010739980e-03
 -4.923567396080120312e-03
 -4.906770670355891859e-03
 -4.889038884078731294e-03
 -4.870427464713534237e-03
 -4.851010427592776508e-03
 -4.830878605768369749e-03
 -4.810136688485480878e-03
 -4.788899252268534294e-03
 -4.767286110354782523e-03
 -4.745417406411855596e-03
 -4.723408914679961233e-03
 -4.701367972440448177e-03
 -4.679390370482225912e-03
 -4.657558385507782825e-03
 -4.635939984938297100e-03
 -4.614589097859706987e-03
 -4.593546746330344314e-03
 -4.572842778024900287e-03
 -4.552497932373032914e-03
 -4.532525998476511463e-03
 -4.512935871116991078e-03
 -4.493733368320008796e-03
 -4.474922729983656089e-03
 -4.963984829999189448e-03
 -4.955494891398354827e-03
 -4.946247120556414648e-03
 -4.936190649180616404e-03
 -4.925277405904576050e-03
 -4.913464127391763137e-03
 -4.900714661406640853e-03
 -4.887002475628982046e-03
 -4.872313232483347321e-03
 -4.856647235748577304e-03
 -4.840021509113406721e-03
 -4.822471242517783682e-03
 -4.804050351726323227e-03
 -4.784830949311961838e-03
 -4.764901622876821508e-03
 -4.744364550072271633e-03
 -4.723331629896534989e-03
 -4.701919948113050460e-03
 -4.680246992445700159e-03
 -4.658426068535207257e-03
 -4.636562332271899553e-03
 -4.614749756268256807e-03
 -4.593069209885374676e-03
 -4.571587682423471251e-03
 -4.550358545633843670e-03
 -4.529422654604989967e-03
 -4.508810034122908740e-03
 -4.488541889054708731e-03
 -4.468632702849175721e-03
 -4.449092235184235779e-03
 -4.429927285635958632e-03
 -4.411143144995391743e-03
 -4.895431827933287468e-03
 -4.887010360640904084e-03
 -4.877840794617080075e-03
 -4.867873101579094954e-03
 -4.857059985701197256e-03
 -4.845358849485996433e-03
 -4.832734044938333424e-03
 -4.819159325914446415e-03
 -4.804620365303901609e-03
 -4.789117147505508529e-03
 -4.772666002157357687e-03
 -4.755301021327809283e-03
 -4.737074611730412825e-03
 -4.718056984958501898e-03
 -4.698334483989864870e-03
 -4.678006774673803582e-03
 -4.657183077174874633e-03
 -4.635977747316259549e-03
 -4.614505613203065230e-03
 -4.592877506953339968e-03
 -4.571196396866109013e-03
 -4.549554429878638687e-03
 -4.528031059210268702e-03
 -4.506692285946144010e-03
 -4.485590913144448313e-03
 -4.464767616347634950e-03
 -4.444252583730858887e-03
 -4.424067470822577383e-03
 -4.404227439702624279e-03
 -4.384743098427557745e-03
 -4.365622210958587830e-03
 -4.346871101339310622e-03
 -4.826249347829505119e-03
 -4.817898522281245308e-03
 -4.808809467459283782e-03
 -4.798933001221455247e-03
 -4.788222609364261272e-03
 -4.776636366208574652e-03
 -4.764139133819466493e-03
 -4.750704957829558414e-03
 -4.736319526902194738e-03
 -4.720982510998775715e-03
 -4.704709550202198533e-03
 -4.687533642667354901e-03
 -4.669505689382621311e-03
 -4.650694003552449489e-03
 -4.631182685279896377e-03
 -4.611068889412021747e-03
 -4.590459157016695511e-03
 -4.569465112547419286e-03
 -4.548198921792946485e-03
 -4.526768939297208180e-03
 -4.505275940288691952e-03
 -4.483810239075876683e-03
 -4.462449864281343818e-03
 -4.441259818822135448e-03
 -4.420292325644298997e-03
 -4.399587867921158496e-03
 -4.379176783079479982e-03
 -4.359081161974754683e-03
 -4.339316828929457373e-03
 -4.319895223098763233e-03
 -4.300825054838761444e-03
 -4.282113662938577883e-03
 </DataArray>
 <DataArray Name="pos.y" type="Float32" NumberOfComponents="1" format="ascii">
 6.379354528679196182e-03
 6.362130046857852363e-03
 6.343251367638670646e-03
 6.322601416983759763e-03
 6.300070152574864697e-03
 6.275559584314650483e-03
 6.248989526982906030e-03
 6.220303864732728075e-03
 6.189476970689508119e-03
 6.156519786023678491e-03
 6.121484946752649321e-03
 6.084470284882527967e-03
 6.045620055562771211e-03
 6.005123377292993954e-03
 5.963209622378840870e-03
 5.920140837237511909e-03
 5.876201655957459524e-03
 5.831687524717171951e-03
 5.786892305220550300e-03
 5.742096415970805896e-03
 5.697556579992709563e-03
 5.653497997368138114e-03
 5.610109406843718713e-03
 5.567541116965912286e-03
 5.525905744870226489e-03
 5.485281151075246768e-03
 5.445714924164910334e-03
 5.407229745613668405e-03
 5.369829028609023579e-03
 5.333502343161114490e-03
 5.298230281122468313e-03
 5.263988553539953284e-03
 6.456488692152642303e-03
 6.438953200127676448e-03
 6.419741076851486622e-03
 6.398734018437651251e-03
 6.375820793781782417e-03
 6.350902296080773897e-03
 6.323897330869799639e-03
 6.294748919153732476e-03
 6.263430757103698697e-03
 6.229953334159985152e-03
 6.194369094690337085e-03
 6.156775966348046469e-03
 6.117318603450878738e-03
 6.076186829714325804e-03
 6.033611016044200179e-03
 5.989854473188298625e-03
 5.945203324740238639e-03
 5.899954681930955937e-03
 5.854404193424460161e-03
 5.808834134447296745e-03
 5.763503108896153061e-03
 5.718638186588321896e-03
 5.674429941957083445e-03
 5.631030474810908015e-03
 5.588554149778270433e-03
 5.547080540105166560e-03
 5.506658926404693621e-03
 5.467313677296260430e-03
 5.429049902883406088e-03
 5.391858891129657286e-03
 5.355722979327171701e-03
 5.320619652413238407e-03
 6.533199358588283150e-03
 6.515350602514654969e-03
 6.495802837203173280e-03
 6.474436545945504162e-03
 6.451139323656479053e-03
 6.425810957885537932e-03
 6.398369250475922226e-03
 6.368756357435623357e-03
 6.336945286786511283e-03
 6.302946053913602124e-03
 6.266810876634582896e-03
 6.228637729914118272e-03
 6.188571605414015277e-03
 6.146802957671144464e-03
 6.103563071204670849e-03
 6.059116428522716251e-03
 6.013750546427488325e-03
 5.967764105604245368e-03
 5.921454451384566484e-03
 5.875105635104026051e-03
 5.828978074358641057e-03
 5.783300657822272248e-03
 5.738265762807544766e-03
 5.694027266307379737e-03
 5.650701284723919950e-03
 5.608369125441637314e-03
 5.567081797777171347e-03
 5.526865407169799342e-03
 5.487726820860065746e-03
 5.449659113075423084e-03
 5.412646440606991988e-03
 5.376668139962802011e-03
 6.609475678965406539e-03
 6.591311479108481058e-03
 6.571425958129935296e-03
 6.549698404407010115e-03
 6.526015254486129680e-03
 6.500275202019313407e-03
 6.472395051244506613e-03
 6.442316091623420671e-03
 6.410010631857298094e-03
 6.375488190631046874e-03
 6.338800723604118802e-03
 6.300046203596712524e-03
 6.259369896245235883e-03
 6.216962810561645070e-03
 6.173057057388885334e-03
 6.127918195842113787e-03
 6.081835036881598315e-03
 6.035107732240176104e-03
 5.988035230884731532e-03
 5.940903277095568695e-03
 5.893974032736194572e-03
 5.847478152570409135e-03
 5.801609782510470589e-03
 5.756524561622846162e-03
 5.712340361758798911e-03
 5.669140245643095738e-03
 5.626976988114248089e-03
 5.585878481539826960e-03
 5.545853411188315062e-03
 5.506896706700634483e-03
 5.468994419388244210e-03
 5.432127816039195554e-03
 6.685306578147955092e-03
 6.666824833199359347e-03