<VTKFile type="UnstructuredGrid" byte_order="BigEndian">
<UnstructuredGrid><Piece NumberOfPoints="660" NumberOfCells="608">
<Points>
 <DataArray type="Float32" NumberOfComponents="3" format="ascii">
 -6.958056706935167313e-03 4.809831269085407257e-03 0.000000000000000000e+00
 -6.948788650333881378e-03 4.798738285899162292e-03 0.000000000000000000e+00
 -6.938542239367961884e-03 4.786473698914051056e-03 0.000000000000000000e+00
 -6.927239708602428436e-03 4.772944841533899307e-03 0.000000000000000000e+00
 -6.914806552231311798e-03 4.758062772452831268e-03 0.000000000000000000e+00
 -6.901175249367952347e-03 4.741746466606855392e-03 0.000000000000000000e+00
 -6.886288523674011230e-03 4.723927471786737442e-03 0.000000000000000000e+00
 -6.870103068649768829e-03 4.704554565250873566e-03 0.000000000000000000e+00
 -6.852595601230859756e-03 4.683598875999450684e-03 0.000000000000000000e+00
 -6.833765190094709396e-03 4.661059472709894180e-03 0.000000000000000000e+00
 -6.813638843595981598e-03 4.636968951672315598e-03 0.000000000000000000e+00
 -6.792273838073015213e-03 4.611395765095949173e-03 0.000000000000000000e+00
 -6.769759580492973328e-03 4.584447015076875687e-03 0.000000000000000000e+00
 -6.746218074113130569e-03 4.556268453598022461e-03 0.000000000000000000e+00
 -6.721799727529287338e-03 4.527040757238864899e-03 0.000000000000000000e+00
 -6.696681492030620575e-03 4.496975336223840714e-03 0.000000000000000000e+00
 -6.671058479696512222e-03 4.466305486857891083e-03 0.000000000000000000e+00
 -6.645136978477239609e-03 4.435278475284576416e-03 0.000000000000000000e+00
 -6.619123741984367371e-03 4.404142033308744431e-03 0.000000000000000000e+00
 -6.593220867216587067e-03 4.373136907815933228e-03 0.000000000000000000e+00
 -6.567613687366247177e-03 4.342486150562763214e-03 0.000000000000000000e+00
 -6.542466580867767334e-03 4.312386270612478256e-03 0.000000000000000000e+00
 -6.517917849123477936e-03 4.283002112060785294e-03 0.000000000000000000e+00
 -6.494076922535896301e-03 4.254464991390705109e-03 0.000000000000000000e+00
 -6.471023894846439362e-03 4.226871766149997711e-03 0.000000000000000000e+00
 -6.448812782764434814e-03 4.200285766273736954e-03 0.000000000000000000e+00
 -6.427471525967121124e-03 4.174740985035896301e-03 0.000000000000000000e+00
 -6.407008040696382523e-03 4.150247201323509216e-03 0.000000000000000000e+00
 -6.387412548065185547e-03 4.126792307943105698e-03 0.000000000000000000e+00
 -6.368663627654314041e-03 4.104350227862596512e-03 0.000000000000000000e+00
 -6.350730080157518387e-03 4.082884639501571655e-03 0.000000000000000000e+00
 -6.333575583994388580e-03 4.062351770699024200e-03 0.000000000000000000e+00
 -6.317161954939365387e-03 4.042705055326223373e-03 0.000000000000000000e+00
 -6.914624013006687164e-03 4.893503617495298386e-03 0.000000000000000000e+00
 -6.905364803969860077e-03 4.882162436842918396e-03 0.000000000000000000e+00
 -6.895131897181272507e-03 4.869628697633743286e-03 0.000000000000000000e+00
 -6.883848458528518677e-03 4.855807870626449585e-03 0.000000000000000000e+00
 -6.871440447866916656e-03 4.840610548853874207e-03 0.000000000000000000e+00
 -6.857840809971094131e-03 4.823952913284301758e-03 0.000000000000000000e+00
 -6.842992734163999557e-03 4.805766511708498001e-03 0.000000000000000000e+00
 -6.826853379607200623e-03 4.785998258739709854e-03 0.000000000000000000e+00
 -6.809398997575044632e-03 4.764619283378124237e-03 0.000000000000000000e+00
 -6.790628191083669662e-03 4.741628188639879227e-03 0.000000000000000000e+00
 -6.770568434149026871e-03 4.717058036476373672e-03 0.000000000000000000e+00
 -6.749275140464305878e-03 4.690977279096841812e-03 0.000000000000000000e+00
 -6.726837251335382462e-03 4.663494415581226349e-03 0.000000000000000000e+00
 -6.703374907374382019e-03 4.634756594896316528e-03 0.000000000000000000e+00
 -6.679037585854530334e-03 4.604946821928024292e-03 0.000000000000000000e+00
 -6.653998978435993195e-03 4.574278835207223892e-03 0.000000000000000000e+00
 -6.628452334553003311e-03 4.542988259345293045e-03 0.000000000000000000e+00
 -6.602602079510688782e-03 4.511325620114803314e-03 0.000000000000000000e+00
 -6.576652638614177704e-03 4.479542374610900879e-03 0.000000000000000000e+00
 -6.550804246217012405e-03 4.447881598025560379e-03 0.000000000000000000e+00
 -6.525239441543817520e-03 4.416569136083126068e-03 0.000000000000000000e+00
 -6.500122137367725372e-03 4.385803826153278351e-03 0.000000000000000000e+00
 -6.475588306784629822e-03 4.355754237622022629e-03 0.000000000000000000e+00
 -6.451747380197048187e-03 4.326553083956241608e-03 0.000000000000000000e+00
 -6.428679451346397400e-03 4.298298154026269913e-03 0.000000000000000000e+00
 -6.406437605619430542e-03 4.271055571734905243e-03 0.000000000000000000e+00
 -6.385050714015960693e-03 4.244859796017408371e-03 0.000000000000000000e+00
 -6.364526227116584778e-03 4.219721071422100067e-03 0.000000000000000000e+00
 -6.344856694340705872e-03 4.195628687739372253e-03 0.000000000000000000e+00
 -6.326020695269107819e-03 4.172557499259710312e-03 0.000000000000000000e+00
 -6.307988427579402924e-03 4.150470718741416931e-03 0.000000000000000000e+00
 -6.290724966675043106e-03 4.129325505346059799e-03 0.000000000000000000e+00
 -6.274192593991756439e-03 4.109076224267482758e-03 0.000000000000000000e+00
 -6.870425306260585785e-03 4.976919852197170258e-03 0.000000000000000000e+00
 -6.861175410449504852e-03 4.965328145772218704e-03 0.000000000000000000e+00
 -6.850957404822111130e-03 4.952522460371255875e-03 0.000000000000000000e+00
 -6.839693989604711533e-03 4.938407335430383682e-03 0.000000000000000000e+00
 -6.827312521636486053e-03 4.922890570014715195e-03 0.000000000000000000e+00
 -6.813746411353349686e-03 4.905889276415109634e-03 0.000000000000000000e+00
 -6.798938382416963577e-03 4.887331742793321609e-03 0.000000000000000000e+00
 -6.782846525311470032e-03 4.867165349423885345e-03 0.000000000000000000e+00
 -6.765446625649929047e-03 4.845359362661838531e-03 0.000000000000000000e+00
 -6.746737752109766006e-03 4.821913782507181168e-03 0.000000000000000000e+00
 -6.726746447384357452e-03 4.796859808266162872e-03 0.000000000000000000e+00
 -6.705527193844318390e-03 4.770268220454454422e-03 0.000000000000000000e+00
 -6.683168467134237289e-03 4.742247518151998520e-03 0.000000000000000000e+00
 -6.659787613898515701e-03 4.712946712970733643e-03 0.000000000000000000e+00
 -6.635533180087804794e-03 4.682550672441720963e-03 0.000000000000000000e+00
 -6.610576994717121124e-03 4.651274997740983963e-03 0.000000000000000000e+00
 -6.585109513252973557e-03 4.619359504431486130e-03 0.000000000000000000e+00
 -6.559333298355340958e-03 4.587056115269660950e-03 0.000000000000000000e+00
 -6.533450447022914886e-03 4.554619546979665756e-03 0.000000000000000000e+00
 -6.507658399641513824e-03 4.522296600043773651e-03 0.000000000000000000e+00
 -6.482139229774475098e-03 4.490315914154052734e-03 0.000000000000000000e+00
 -6.457054056227207184e-03 4.458878654986619949e-03 0.000000000000000000e+00
 -6.432538386434316635e-03 4.428155254572629929e-03 0.000000000000000000e+00
 -6.408700719475746155e-03 4.398281686007976532e-03 0.000000000000000000e+00
 -6.385620217770338058e-03 4.369356669485569000e-03 0.000000000000000000e+00
 -6.363349966704845428e-03 4.341447725892066956e-03 0.000000000000000000e+00
 -6.341919302940368652e-03 4.314590711146593094e-03 0.000000000000000000e+00
 -6.321337074041366577e-03 4.288796335458755493e-03 0.000000000000000000e+00
 -6.301595363765954971e-03 4.264055751264095306e-03 0.000000000000000000e+00
 -6.282674148678779602e-03 4.240343812853097916e-03 0.000000000000000000e+00
 -6.264545023441314697e-03 4.217624198645353317e-03 0.000000000000000000e+00
 -6.247174460440874100e-03 4.195854999125003815e-03 0.000000000000000000e+00
 -6.230525672435760498e-03 4.174991045147180557e-03 0.000000000000000000e+00
 -6.825461983680725098e-03 5.060073919594287872e-03 0.000000000000000000e+00
 -6.816222798079252243e-03 5.048228893429040909e-03 0.000000000000000000e+00
 -6.806020624935626984e-03 5.035148467868566513e-03 0.000000000000000000e+00
 -6.794778630137443542e-03 5.020735785365104675e-03 0.000000000000000000e+00
 -6.782425101846456528e-03 5.004897247999906540e-03 0.000000000000000000e+00
 -6.768893450498580933e-03 4.987548571079969406e-03 0.000000000000000000e+00
 -6.754127331078052521e-03 4.968617111444473267e-03 0.000000000000000000e+00
 -6.738084834069013596e-03 4.948048852384090424e-03 0.000000000000000000e+00
 -6.720741745084524155e-03 4.925813525915145874e-03 0.000000000000000000e+00
 -6.702096667140722275e-03 4.901909269392490387e-03 0.000000000000000000e+00
 -6.682175677269697189e-03 4.876368679106235504e-03 0.000000000000000000e+00
 -6.661033257842063904e-03 4.849262535572052002e-03 0.000000000000000000e+00
 -6.638755556195974350e-03 4.820700269192457199e-03 0.000000000000000000e+00
 -6.615458987653255463e-03 4.790832288563251495e-03 0.000000000000000000e+00
 -6.591290235519409180e-03 4.759845323860645294e-03 0.000000000000000000e+00
 -6.566418800503015518e-03 4.727958235889673233e-03 0.000000000000000000e+00
 -6.541033741086721420e-03 4.695412237197160721e-03 0.000000000000000000e+00
 -6.515333894640207291e-03 4.662462975829839706e-03 0.000000000000000000e+00
 -6.489520426839590073e-03 4.629367962479591370e-03 0.000000000000000000e+00
 -6.463788449764251709e-03 4.596376791596412659e-03 0.000000000000000000e+00
 -6.438317243009805679e-03 4.563720896840095520e-03 0.000000000000000000e+00
 -6.413266994059085846e-03 4.531604237854480743e-03 0.000000000000000000e+00
 -6.388772279024124146e-03 4.500199574977159500e-03 0.000000000000000000e+00
 -6.364939734339714050e-03 4.469644278287887573e-03 0.000000000000000000e+00
 -6.341849453747272491e-03 4.440040327608585358e-03 0.000000000000000000e+00
 -6.319553591310977936e-03 4.411455243825912476e-03 0.000000000000000000e+00
 -6.298081949353218079e-03 4.383926745504140854e-03 0.000000000000000000e+00
 -6.277443841099739075e-03 4.357466939836740494e-03 0.000000000000000000e+00
[...]
<CellData>
 <DataArray Name="pos.x" type="Float32" NumberOfComponents="1" format="ascii">
 -6.931681242340445755e-03
 -6.921931358836338338e-03
 -6.911166604287957184e-03
 -6.899311397346772658e-03
 -6.886295039885104510e-03
 -6.872055184949882843e-03
 -6.856541812096747339e-03
 -6.839721555237533897e-03
 -6.821582132367264364e-03
 -6.802136529111778122e-03
 -6.781426506655531886e-03
 -6.759524961516672099e-03
 -6.736536682577704861e-03
 -6.712597146248559972e-03
 -6.687869166838520361e-03
 -6.662537460262534308e-03
 -6.636801449359013005e-03
 -6.610866888397078957e-03
 -6.584937060713438525e-03
 -6.559204367325340186e-03
 -6.533843060914108943e-03
 -6.509003703532208369e-03
 -6.484809677141966863e-03
 -6.461355805832803487e-03
 -6.438708907346610624e-03
 -6.416909915328460751e-03
 -6.395977118464965874e-03
 -6.375910045335488226e-03
 -6.356693567721088955e-03
 -6.338301877564530770e-03
 -6.320702091326777829e-03
 -6.303857332254206303e-03
 -6.887869299920353766e-03
 -6.878131060661203493e-03
 -6.867383229795669813e-03
 -6.855550799315549698e-03
 -6.842563591615991730e-03
 -6.828359690707010675e-03
 -6.812889375356807192e-03
 -6.796119401058722462e-03
 -6.778037383026986641e-03
 -6.758655936079205166e-03
 -6.738016146828715303e-03
 -6.716189910966024849e-03
 -6.693280686156148629e-03
 -6.669422305432237165e-03
 -6.644775670165374050e-03
 -6.619523379991386000e-03
 -6.593862624140983501e-03
 -6.567996905079763297e-03
 -6.542127339730327215e-03
 -6.516444346690842410e-03
 -6.491120465158943878e-03
 -6.466304877219984128e-03
 -6.442119958730048099e-03
 -6.418659916885142633e-03
 -6.395991334082719131e-03
 -6.374155263514104039e-03
 -6.353170427781237514e-03
 -6.333037054742152346e-03
 -6.313740928233345200e-03
 -6.295257312883197932e-03
 -6.277554509685610851e-03
 -6.260596894718205123e-03
 -6.843292432116004388e-03
 -6.833566903841609315e-03
 -6.822837167217673734e-03
 -6.811028794982462893e-03
 -6.798072137006954015e-03
 -6.783905714434277159e-03
 -6.768480110283508350e-03
 -6.751762205129201513e-03
 -6.733739512942858198e-03
 -6.714424276940593808e-03
 -6.693856905695474112e-03
 -6.672108287718434526e-03
 -6.649280540133699520e-03
 -6.625505840409389065e-03
 -6.600943162226007542e-03
 -6.575772972109012772e-03
 -6.550190207422322379e-03
 -6.524396099899984133e-03
 -6.498589581248419983e-03
 -6.472959069732166573e-03
 -6.447675374703009873e-03
 -6.422886283958761933e-03
 -6.398713155297049843e-03
 -6.375249569554842892e-03
 -6.352561866757915933e-03
 -6.330691214861848201e-03
 -6.309656767560260435e-03
 -6.289459450776450737e-03
 -6.270085960437777814e-03
 -6.251512634793350565e-03
 -6.233708960895272336e-03
 -6.216640569503838025e-03
 -6.797953216504336836e-03
 -6.788241500051530111e-03
 -6.777531064486854058e-03
 -6.765748070798318844e-03
 -6.752823403372722189e-03
 -6.738696026768559340e-03
 -6.723316833381631948e-03
 -6.706652832449127438e-03
 -6.688691438330670452e-03
 -6.669444521914271416e-03
 -6.648951810340166663e-03
 -6.627283178638222576e-03
 -6.604539394115442087e-03
 -6.580850966522735178e-03
 -6.556374927112402703e-03
 -6.531289592472156423e-03
 -6.505787629823801474e-03
 -6.480067981208517160e-03
 -6.454327374259762225e-03
 -6.428752208923842019e-03
 -6.403511548243793865e-03
 -6.378751771297984895e-03
 -6.354593205731909333e-03
 -6.331128796399216642e-03
 -6.308424633744620126e-03
 -6.286521995505826854e-03
 -6.265440463423118181e-03
 -6.245181660035182582e-03
 -6.225733193142117539e-03
 -6.207072475284896619e-03
 -6.189170180824478569e-03
 -6.171993196769482402e-03
 -6.751854306748237763e-03
 -6.742157537004111675e-03
 -6.731467645461519829e-03
 -6.719711388945219521e-03
 -6.706820193505123005e-03
 -6.692733473472190463e-03
 -6.677402435842163392e-03
 -6.660794222183280718e-03
 -6.642896148954602689e-03
 -6.623719714075363210e-03
 -6.603303959931757817e-03
 -6.581717741847009119e-03
 -6.559060468097124667e-03
 -6.535460968614734308e-03
 -6.511074317535480924e-03
 -6.486076664709025143e-03
 -6.460658388956146136e-03
 -6.435016123660064827e-03
 -6.409344373500818794e-03
 -6.383827502072776487e-03
 -6.358632809577454900e-03
 -6.333905251840799000e-03
 -6.309764114140586563e-03
 -6.286301695567784141e-03
 -6.263583829599612615e-03
 -6.241651898568784454e-03
 -6.220525908993666982e-03
 -6.200208178327434004e-03
 -6.180687225762094596e-03
 -6.161941538520094609e-03
 -6.143942979228556207e-03
 -6.126659692413481163e-03
 -6.704998432592992018e-03
 -6.695317778436495927e-03
 -6.684649709897023950e-03
 -6.672921587315297151e-03
 -6.660065385622804257e-03
 -6.646020975377685616e-03
 -6.630739883475654690e-03
 -6.614189387574247354e-03
 -6.596356708027928221e-03
 -6.577252969234777952e-03
 -6.556916525591360671e-03
 -6.535415206569344243e-03
 -6.512847052286351891e-03
 -6.489339200833429099e-03
 -6.465044754606688419e-03
 -6.440137679980210451e-03
 -6.414806049159947274e-03
 -6.389244167930051461e-03
 -6.363644299145063653e-03
 -6.338188751991320584e-03
 -6.313043047247025689e-03
 -6.288350702873770313e-03
 -6.264229949452114650e-03
 -6.240772430389550721e-03
 -6.218043714630873062e-03
 -6.196085283714308604e-03
 -6.174917565429705914e-03
 -6.154543570191178294e-03
 -6.134952727820676931e-03
 -6.116124600316627698e-03
 -6.098032239221286635e-03
 -6.080645047527143653e-03
 -6.657388399859858093e-03
 -6.647725064095911900e-03
 -6.637080133427896399e-03
 -6.625381579466516936e-03
 -6.612561933329296100e-03
 -6.598561528326291753e-03
 -6.583332216638219415e-03
 -6.566841415856432100e-03
 -6.549076252112283336e-03
 -6.530047475821977067e-03
 -6.509792750251181849e-03
 -6.488378872978840632e-03
 -6.465902506930249448e-03
 -6.442489086434726592e-03
 -6.418289727622156736e-03
 -6.393476196740582526e-03
 -6.368234241242843804e-03
 -6.342755820432384624e-03
 -6.317230936497417876e-03
 -6.291839826168881163e-03
 -6.266746214192808577e-03
 -6.242092165993308808e-03
 -6.217994845026590493e-03
 -6.194545228957472859e-03
 -6.171808614463462732e-03
 -6.149826576688526523e-03
 -6.128619960950636852e-03
 -6.108192468399794781e-03
 -6.088534438437127362e-03
 -6.069626507621617324e-03
 -6.051442916729905287e-03
 -6.033954327838679174e-03
 -6.609027090438104012e-03
 -6.599382309720693528e-03
 -6.588761867538286271e-03
 -6.577094354593818193e-03
 -6.564312865562714483e-03
 -6.550358203107808398e-03
 -6.535182550161194003e-03
 -6.518753468167431432e-03
 -6.501057991013254288e-03
 -6.482106494764569224e-03
 -6.461935948521688525e-03
 -6.440612112038414210e-03
 -6.418230262138530963e-03
 -6.394914117586090845e-03
 -6.370812793843439771e-03
 -6.346095840498423846e-03
 -6.320946662217918552e-03
 -6.295554853031697443e-03
 -6.270108135686040460e-03
 -6.244784656440492861e-03
 -6.219746327399380999e-03
 -6.195133746732368017e-03
 -6.171062998258679440e-03
 -6.147624383714326776e-03
 -6.124882919604042984e-03
 -6.102880268867010016e-03
 -6.081637690359710351e-03
 -6.061159573470214015e-03
 -6.041437165818262095e-03
 -6.022452177980808230e-03
 -6.004180039952504433e-03
 -5.986592673148159391e-03
 -6.559917462280186531e-03
 -6.550292507030776833e-03
 -6.539697939542157314e-03
 -6.528062977492896796e-03
 -6.515321286551539574e-03
 -6.501414145407654298e-03
 -6.486294073276351220e-03
 -6.469928779465725262e-03
 -6.452305207678326118e-03
 -6.433433359368613547e-03
 -6.413349506551104494e-03
 -6.392118365348726551e-03
 -6.369833817706350640e-03
 -6.346617855170167896e-03
 -6.322617578279947359e-03
 -6.298000303575037283e-03
 -6.272947075041187745e-03
 -6.247645102761301659e-03
 -6.222279811355180788e-03
 -6.197027238658667399e-03
 -6.172047467542960027e-03
 -6.147479614183402885e-03
 -6.123438670179013991e-03
 -6.100014251030867057e-03
 -6.077271084996492025e-03
 -6.055250916790931234e-03
 -6.033975414566767649e-03
 -6.013449653159735203e-03
 -5.993665786735101995e-03
 -5.974606599003798313e-03
 -5.956248708797158911e-03
 -5.938565296757172471e-03
 -6.510062549395113224e-03
 -6.500458723708887714e-03
 -6.489891452554358807e-03
 -6.478290588521736816e-03
 -6.465590375768944832e-03
 -6.451732575740272251e-03
 -6.436670049545970863e-03
 -6.420370658437360954e-03
 -6.402821258093575538e-03
 -6.384031475200119786e-03
 -6.364036881888635901e-03
 -6.342901144986334318e-03
 -6.320716742939201140e-03
 -6.297603928588036033e-03
 -6.273707773469946840e-03
 -6.249193344865130485e-03
 -6.224239308349430524e-03
 -6.199030471534398672e-03
 -6.173749942356804646e-03
 -6.148571632359908605e-03
 -6.123653778637034792e-03
 -6.099134000624347775e-03
 -6.075126185057578773e-03
 -6.051719250787270833e-03
 -6.028977629584597597e-03
 -6.006943141706782424e-03
 -5.985637860100893534e-03
 -5.965067541964755304e-03
 -5.945225246003177193e-03
 -5.926094827819284282e-03
 -5.907654094325521382e-03
 -5.889877484888951867e-03
 -6.459465461843049219e-03
 -6.449884103386624261e-03
 -6.439345585466672503e-03
 -6.427780403568471301e-03
 -6.415123387882632269e-03
 -6.401316789395920803e-03
 -6.386313816785557824e-03
 -6.370082487411004787e-03
 -6.352609571178904034e-03
 -6.333904319962747713e-03
 -6.314001603346657866e-03
 -6.292964033349993623e-03
 -6.270882676475181619e-03
 -6.247876035560889600e-03
 -6.224087139262781537e-03
 -6.199678789595418696e-03
 -6.174827256195387741e-03
 -6.149714925861623181e-03
 -6.124522571441525474e-03
 -6.099421960434797500e-03
 -6.074569467678261718e-03
 -6.050101201138518604e-03
 -6.026129930002586954e-03
 -6.002743865948878196e-03
 -5.980007135864985786e-03
 -5.957961629098081253e-03
 -5.936629818625491738e-03
 -5.916018140611128961e-03
 -5.896120555950758874e-03
 -5.876921990527521344e-03
 -5.858401438183152149e-03
 -5.840534596099812396e-03
 -6.408129385727048648e-03
 -6.398571865629651759e-03
 -6.388063592924020893e-03
 -6.376535714014658178e-03
 -6.363923652708629829e-03
 -6.350170156376345500e-03
 -6.335228786992977770e-03
 -6.319067722269397329e-03
 -6.301673648686163635e-03
 -6.283055443377962880e-03
 -6.263247270859966832e-03
 -6.242310683001645738e-03
 -6.220335326108277982e-03
 -6.197437941932095774e-03
 -6.173759502599030120e-03
 -6.149460529085061175e-03
 -6.124714877787519607e-03
 -6.099702496563825030e-03
 -6.074601804950004874e-03
 -6.049582408794179460e-03
 -6.024798804289997062e-03
 -6.000385573237096253e-03
 -5.976454354558340121e-03
 -5.953092642143451366e-03
 -5.930364249439930985e-03
 -5.908311128217024095e-03
 -5.886956146445220146e-03
 -5.866306415542012209e-03
 -5.846356795888209106e-03
 -5.827093281644693881e-03
 -5.808496052024100104e-03
 -5.790542060687225295e-03
 -6.356057583188768137e-03
 -6.346525305920660762e-03
 -6.336048805298483654e-03
 -6.324559886697779867e-03
 -6.311994575163711388e-03
 -6.298296121333897025e-03
 -6.283418446273666275e-03
 -6.267329892359887675e-03
 -6.250017065091729822e-03
 -6.231488467062685707e-03
 -6.211777555349608237e-03
 -6.190944816509925952e-03
 -6.169078468610842553e-03
 -6.146293481471426685e-03
 -6.122728757292664366e-03
 -6.098542520503666409e-03
 -6.073906197224392643e-03
 -6.048997278484923891e-03
 -6.023991812504232539e-03
 -5.999057226038251832e-03
 -5.974346120368718635e-03
 -5.949991536481197101e-03
 -5.926103970303018761e-03
 -5.902770187234489957e-03
 -5.880053678569518820e-03
 -5.857996451613173804e-03
 -5.836621764013060452e-03
 -5.815937398401269630e-03
 -5.795939111566393229e-03
 -5.776613963544498416e-03
 -5.757943316930793851e-03
 -5.739905380084453501e-03
 -6.303253392401547868e-03
 -6.293747795643521263e-03
 -6.283304628663091175e-03
 -6.271856363875999776e-03
 -6.259339635217830641e-03
 -6.245698203513699864e-03
 -6.230886354766050454e-03
 -6.214872600405500248e-03
 -6.197643467493811099e-03
 -6.179207084409881791e-03
 -6.159596198582011767e-03
 -6.138870226292286389e-03
 -6.117115949557472808e-03
 -6.094446555675929640e-03
 -6.070998863811802662e-03
 -6.046928786632196906e-03
 -6.022405303232896898e-03
 -5.997603430209268172e-03
 -5.972696826697689032e-03
 -5.947850723124015714e-03
 -5.923215809725343103e-03
 -5.898923572099651867e-03
 -5.875083350445771055e-03
 -5.851781170893297253e-03
 -5.829080193720624983e-03
 -5.807022474658013640e-03
 -5.785631655433365848e-03
 -5.764916185512860419e-03
 -5.744872714636535538e-03
 -5.725489365891729514e-03
 -5.706748682825276558e-03
 -5.688630126252703680e-03
 -6.249720227562384142e-03
 -6.240242782072584656e-03
 -6.229834544765758611e-03
 -6.218428663191245646e-03
 -6.205962387843677944e-03
 -6.192379996689801464e-03
 -6.177636146565949719e-03
 -6.161699522416134306e-03
 -6.144556575507919768e-03
 -6.126215060464287182e-03
 -6.106707013030571694e-03
 -6.086090774456685143e-03
 -6.064451683146313173e-03
 -6.041901133572883352e-03
 -6.018573849060243272e-03
 -5.994623415621716869e-03
 -5.970216348906092797e-03
 -5.945525173772565897e-03
 -5.920721142788043859e-03
 -5.895967273031642655e-03
 -5.871412327730122886e-03
 -5.847186222610810738e-03
 -5.823397129420814465e-03
 -5.800130324172223482e-03
 -5.777448627113287646e-03
 -5.755394135069886313e-03
 -5.733990867959573579e-03
 -5.713247937357944159e-03
 -5.693162882100328420e-03
 -5.673724885071302487e-03
 -5.654917667875155110e-03
 -5.636721941064440702e-03
 -6.195461578888895350e-03
 -6.186013788349458385e-03
 -6.175642111005410877e-03
 -6.164280377631615494e-03
 -6.151866462968837504e-03
 -6.138345169106188166e-03
 -6.123671529651938429e-03
 -6.107814407596963598e-03
 -6.090760181159404069e-03
 -6.072516231804134940e-03
 -6.053113881736318230e-03
 -6.032610392644776817e-03
 -6.011089652023546108e-03
 -5.988661251524062153e-03
 -5.965457806159740056e-03
 -5.941630560753866780e-03
 -5.917343551439933902e-03
 -5.892766794379633057e-03
 -5.868069118386366745e-03
 -5.843411310433608251e-03
 -5.818940190956406813e-03
 -5.794784091440066329e-03
 -5.771050002484062226e-03
 -5.747822439072974680e-03
 -5.725163872268385253e-03
 -5.703116432433658588e-03
 -5.681704511492648678e-03
 -5.660937878045381629e-03
 -5.640814955758821116e-03
 -5.621325983611990401e-03
 -5.602455857894284366e-03
 -5.584186535677907945e-03
 -6.140481012611744699e-03
 -6.131064413472798839e-03
 -6.120730960403400478e-03
 -6.109415175496484517e-03
 -6.097055565428010498e-03
 -6.083597463412846774e-03
 -6.068996285811307026e-03
 -6.053221078261628203e-03
 -6.036258148779886923e-03
 -6.018114506416354786e-03
 -5.998820758168332129e-03
 -5.978433081873230429e-03
 -5.957033907106186639e-03
 -5.934731013025607016e-03
 -5.911654894231558287e-03
 -5.887954440200984102e-03
 -5.863791191872196225e-03
 -5.839332640117989026e-03
 -5.814745173151081650e-03
 -5.790187331361120425e-03
 -5.765803976824241187e-03
 -5.741721842540002153e-03
 -5.718046725305649808e-03
 -5.694862368117310260e-03
 -5.672230883549444873e-03
 -5.650194427721045957e-03
 -5.628777758073677355e-03
 -5.607991294780589366e-03
 -5.587834341656025376e-03
 -5.568298189603980257e-03
 -5.549368905735369353e-03
 -5.531029689907244855e-03
 -6.084782170966617117e-03
 -6.075398332281330138e-03
 -6.065104801581192896e-03
 -6.053836800357397484e-03
 -6.041533474912715897e-03
 -6.028140696604879223e-03
 -6.013614270563473994e-03
 -5.997923429740072143e-03
 -5.981054414901296884e-03
 -5.963013863575230070e-03
 -5.943831666085462942e-03
 -5.923562912377802053e-03
 -5.902288567404481365e-03
 -5.880114588515037571e-03
 -5.857169338179718347e-03
 -5.833599336787902330e-03
 -5.809563614819760434e-03
 -5.785227121673225739e-03
 -5.760753788478874607e-03
 -5.736299892873509762e-03
 -5.712008323243255269e-03
 -5.688004200009018872e-03
 -5.664392113565122448e-03
 -5.641255023914564307e-03
 -5.618654675707331070e-03
 -5.596633242806227544e-03
 -5.575215841375553982e-03
 -5.554413537331370603e-03
 -5.534226509517048073e-03
 -5.514647096113803673e-03
 -5.495662530676060503e-03
 -5.477257251582334958e-03
 -6.028368772192265086e-03
 -6.019019295437576765e-03
 -6.008767418729576114e-03
 -5.997549071019571756e-03
 -5.985304045923412961e-03
 -5.971978759960817548e-03
 -5.957529413083436851e-03
 -5.941925430288081018e-03
 -5.925152988150571287e-03
 -5.907218353722652401e-03
 -5.888150699396142544e-03
 -5.868004023454676150e-03
 -5.846857819846982413e-03
 -5.824816215172118859e-03
 -5.802005428472769254e-03
 -5.778569597752413432e-03
 -5.754665228220262087e-03
 -5.730454712046849711e-03
 -5.706099507197272963e-03
 -5.681753612725675209e-03
 -5.657557928256836538e-03
 -5.633635947709788802e-03
 -5.610091042542774201e-03
 -5.587005378729265753e-03
 -5.564440323420401062e-03
 -5.542438059981441047e-03
 -5.521024056190824807e-03
 -5.500210017489859556e-03
 -5.479996992183731007e-03
 -5.460378360590995538e-03
 -5.441342517804046222e-03
 -5.422875135905337075e-03
 </DataArray>
 <DataArray Name="pos.y" type="Float32" NumberOfComponents="1" format="ascii">
 4.846116038553376776e-03
 4.834305508559046116e-03
 4.821266428013876344e-03
 4.806907302836655946e-03
 4.791142550560590144e-03
 4.773896699526233509e-03
 4.755109202491063398e-03
 4.734739677124424201e-03
 4.712773269895537305e-03
 4.689225721903173515e-03
 4.664147616631631604e-03
 4.637627237444136470e-03
 4.609791484340508907e-03
 4.580804415079199263e-03
 4.550863189121762131e-03
 4.520191484715235623e-03
 4.489030786540653545e-03
 4.457630243232188483e-03
 4.426236007654401478e-03
 4.395081050232178127e-03
 4.364376358880891690e-03
 4.334304225988177585e-03
 4.305014021177028249e-03
 4.276620521399569427e-03
 4.249204577859906108e-03
 4.222815685852054392e-03
 4.197475908183585618e-03
 4.173184581701443879e-03
 4.149923289430539237e-03
 4.127660680496142084e-03
 4.106356839191397171e-03
 4.085967021682140703e-03
 4.929536090016963489e-03
 4.917465718964409045e-03
 4.904144798923085712e-03
 4.889480421725492069e-03
 4.873385662688535166e-03
 4.855783831795102215e-03
 4.836613346814695909e-03
 4.815833038645109081e-03
 4.793427581861325025e-03
 4.769412624085559056e-03
 4.743839088103514630e-03
 4.716796067839701401e-03
 4.688411761261647437e-03
 4.658852000188053351e-03
 4.628316152783132874e-03
 4.597030469771619388e-03
 4.565239276283519949e-03
 4.533194716621141707e-03
 4.501145975287632571e-03
 4.469328975910280381e-03
 4.437957482056571930e-03
 4.407216308373729588e-03
 4.377257045254480568e-03
 4.348196369292595120e-03
 4.320116716350096142e-03
 4.293068878217751703e-03
 4.267075967117556559e-03
 4.242138170947827407e-03
 4.218237775828161812e-03
 4.195344033362104035e-03
 4.173417570671330082e-03
 4.152414159790208947e-03
 5.012695809182353239e-03
 5.000362753783116170e-03
 4.986757078936961650e-03
 4.971784466949118186e-03
 4.955356654319188411e-03
 4.937395734124943800e-03
 4.917839087760168294e-03
 4.896644754146292633e-03
 4.873796925942727558e-03
 4.849311141561549188e-03
 4.823238640921415424e-03
 4.795669299518157472e-03
 4.766732577513084317e-03
 4.736596038797974417e-03
 4.705461213190599047e-03
 4.673556873476688266e-03
 4.641130133614303904e-03
 4.608436083208039893e-03
 4.575726891841647853e-03
 4.543241396012824042e-03
 4.511196102916528901e-03
 4.479778327308493041e-03
 4.449141869055995777e-03
 4.419405304304679927e-03
 4.390652664470928897e-03
 4.362936059015953133e-03
 4.336279679958252205e-03
 4.310684604530515447e-03
 4.286133866699365184e-03
 4.262597370321213712e-03
 4.240036338743035337e-03
 4.218407115590188002e-03
 5.095588643959116787e-03
 5.082990053303536836e-03
 5.069096703786331662e-03
 5.053812873143694907e-03
 5.037048962808650214e-03
 5.018725850703632460e-03
 4.998779880646365796e-03
 4.977168294423171303e-03
 4.953874792641997649e-03
 4.928914788440173778e-03
 4.902339816147458125e-03
 4.874240503028976282e-03
 4.844747534605495232e-03
 4.814030163560296775e-03
 4.782292032812453762e-03
 4.749764385142097103e-03
 4.716697069979742217e-03
 4.683348070126529088e-03
 4.649972492024977665e-03
 4.616812043202613881e-03
 4.584085941163445685e-03
 4.551983977603836322e-03
 4.520662149850064593e-03
 4.490240933106124863e-03
 4.460805965141140597e-03
 4.432410694450210353e-03
 4.405080423672958281e-03
 4.378817158316210094e-03
 4.353604725778098712e-03
 4.329413732904042848e-03
 4.306206053719863550e-03
 4.283938660275105580e-03
 5.178207816055085261e-03
 5.165340835888902402e-03