<VTKFile type="UnstructuredGrid" byte_order="BigEndian">
<UnstructuredGrid><Piece NumberOfPoints="660" NumberOfCells="608">
<Points>
 <DataArray type="Float32" NumberOfComponents="3" format="ascii">
 -5.344372708350419998e-03 9.377443231642246246e-03 0.000000000000000000e+00
 -5.336346570402383804e-03 9.353475645184516907e-03 0.000000000000000000e+00
 -5.327286664396524429e-03 9.326421655714511871e-03 0.000000000000000000e+00
 -5.317102186381816864e-03 9.296008385717868805e-03 0.000000000000000000e+00
 -5.305706057697534561e-03 9.261976927518844604e-03 0.000000000000000000e+00
 -5.293020512908697128e-03 9.224095381796360016e-03 0.000000000000000000e+00
 -5.278980825096368790e-03 9.182170033454895020e-03 0.000000000000000000e+00
 -5.263541359454393387e-03 9.136065840721130371e-03 0.000000000000000000e+00
 -5.246682092547416687e-03 9.085721336305141449e-03 0.000000000000000000e+00
 -5.228412803262472153e-03 9.031165391206741333e-03 0.000000000000000000e+00
 -5.208779126405715942e-03 8.972535841166973114e-03 0.000000000000000000e+00
 -5.187866743654012680e-03 8.910087868571281433e-03 0.000000000000000000e+00
 -5.165803711861371994e-03 8.844204246997833252e-03 0.000000000000000000e+00
 -5.142758600413799286e-03 8.775386959314346313e-03 0.000000000000000000e+00
 -5.118938628584146500e-03 8.704256266355514526e-03 0.000000000000000000e+00
 -5.094582680612802505e-03 8.631524629890918732e-03 0.000000000000000000e+00
 -5.069952458143234253e-03 8.557975292205810547e-03 0.000000000000000000e+00
 -5.045322701334953308e-03 8.484425023198127747e-03 0.000000000000000000e+00
 -5.020966753363609314e-03 8.411693386733531952e-03 0.000000000000000000e+00
 -4.997146315872669220e-03 8.340562693774700165e-03 0.000000000000000000e+00
 -4.974101670086383820e-03 8.271746337413787842e-03 0.000000000000000000e+00
 -4.952038638293743134e-03 8.205861784517765045e-03 0.000000000000000000e+00
 -4.931126255542039871e-03 8.143414743244647980e-03 0.000000000000000000e+00
 -4.911492578685283661e-03 8.084785193204879761e-03 0.000000000000000000e+00
 -4.893223289400339127e-03 8.030229248106479645e-03 0.000000000000000000e+00
 -4.876364022493362427e-03 7.979883812367916107e-03 0.000000000000000000e+00
 -4.860924556851387024e-03 7.933779619634151459e-03 0.000000000000000000e+00
 -4.846884869039058685e-03 7.891855202615261078e-03 0.000000000000000000e+00
 -4.834199324250221252e-03 7.853972725570201874e-03 0.000000000000000000e+00
 -4.822803195565938950e-03 7.819942198693752289e-03 0.000000000000000000e+00
 -4.812618251889944077e-03 7.789528928697109222e-03 0.000000000000000000e+00
 -4.803558345884084702e-03 7.762474007904529572e-03 0.000000000000000000e+00
 -4.795532207936048508e-03 7.738506887108087540e-03 0.000000000000000000e+00
 -5.272413603961467743e-03 9.467546828091144562e-03 0.000000000000000000e+00
 -5.264414008706808090e-03 9.443248622119426727e-03 0.000000000000000000e+00
 -5.255383905023336411e-03 9.415821172297000885e-03 0.000000000000000000e+00
 -5.245232954621315002e-03 9.384988807141780853e-03 0.000000000000000000e+00
 -5.233874078840017319e-03 9.350487962365150452e-03 0.000000000000000000e+00
 -5.221230443567037582e-03 9.312084876000881195e-03 0.000000000000000000e+00
 -5.207236856222152710e-03 9.269581176340579987e-03 0.000000000000000000e+00
 -5.191848613321781158e-03 9.222841821610927582e-03 0.000000000000000000e+00
 -5.175044760107994080e-03 9.171802550554275513e-03 0.000000000000000000e+00
 -5.156835075467824936e-03 9.116494096815586090e-03 0.000000000000000000e+00
 -5.137266125530004501e-03 9.057056158781051636e-03 0.000000000000000000e+00
 -5.116423126310110092e-03 8.993748575448989868e-03 0.000000000000000000e+00
 -5.094432737678289413e-03 8.926955983042716980e-03 0.000000000000000000e+00
 -5.071463529020547867e-03 8.857190608978271484e-03 0.000000000000000000e+00
 -5.047721788287162781e-03 8.785079233348369598e-03 0.000000000000000000e+00
 -5.023445934057235718e-03 8.711344562470912933e-03 0.000000000000000000e+00
 -4.998897202312946320e-03 8.636781014502048492e-03 0.000000000000000000e+00
 -4.974348004907369614e-03 8.562216535210609436e-03 0.000000000000000000e+00
 -4.950072150677442551e-03 8.488482795655727386e-03 0.000000000000000000e+00
 -4.926330875605344772e-03 8.416371420025825500e-03 0.000000000000000000e+00
 -4.903361666947603226e-03 8.346606045961380005e-03 0.000000000000000000e+00
 -4.881371278315782547e-03 8.279813453555107117e-03 0.000000000000000000e+00
 -4.860527813434600830e-03 8.216504938900470734e-03 0.000000000000000000e+00
 -4.840958863496780396e-03 8.157067000865936279e-03 0.000000000000000000e+00
 -4.822749644517898560e-03 8.101759478449821472e-03 0.000000000000000000e+00
 -4.805945791304111481e-03 8.050720207393169403e-03 0.000000000000000000e+00
 -4.790557548403739929e-03 8.003979921340942383e-03 0.000000000000000000e+00
 -4.776563961058855057e-03 7.961477153003215790e-03 0.000000000000000000e+00
 -4.763919860124588013e-03 7.923073135316371918e-03 0.000000000000000000e+00
 -4.752561450004577637e-03 7.888573221862316132e-03 0.000000000000000000e+00
 -4.742410499602556229e-03 7.857739925384521484e-03 0.000000000000000000e+00
 -4.733380395919084549e-03 7.830312475562095642e-03 0.000000000000000000e+00
 -4.725380335003137589e-03 7.806014735251665115e-03 0.000000000000000000e+00
 -5.199712235480546951e-03 9.556935168802738190e-03 0.000000000000000000e+00
 -5.191741045564413071e-03 9.532307274639606476e-03 0.000000000000000000e+00
 -5.182742606848478317e-03 9.504508227109909058e-03 0.000000000000000000e+00
 -5.172627512365579605e-03 9.473256766796112061e-03 0.000000000000000000e+00
 -5.161308683454990387e-03 9.438288398087024689e-03 0.000000000000000000e+00
 -5.148709751665592194e-03 9.399363771080970764e-03 0.000000000000000000e+00
 -5.134765524417161942e-03 9.356284514069557190e-03 0.000000000000000000e+00
 -5.119431763887405396e-03 9.308909997344017029e-03 0.000000000000000000e+00
 -5.102687049657106400e-03 9.257178753614425659e-03 0.000000000000000000e+00
 -5.084542091935873032e-03 9.201120585203170776e-03 0.000000000000000000e+00
 -5.065042059868574142e-03 9.140876121819019318e-03 0.000000000000000000e+00
 -5.044272635132074356e-03 9.076708927750587463e-03 0.000000000000000000e+00
 -5.022360011935234070e-03 9.009010158479213715e-03 0.000000000000000000e+00
 -4.999471828341484070e-03 8.938298560678958893e-03 0.000000000000000000e+00
 -4.975813906639814377e-03 8.865208365023136139e-03 0.000000000000000000e+00
 -4.951624199748039246e-03 8.790474385023117065e-03 0.000000000000000000e+00
 -4.927161615341901779e-03 8.714898489415645599e-03 0.000000000000000000e+00
 -4.902699496597051620e-03 8.639323525130748749e-03 0.000000000000000000e+00
 -4.878509324043989182e-03 8.564588613808155060e-03 0.000000000000000000e+00
 -4.854851868003606796e-03 8.491499349474906921e-03 0.000000000000000000e+00
 -4.831963684409856796e-03 8.420786820352077484e-03 0.000000000000000000e+00
 -4.810051061213016510e-03 8.353088982403278351e-03 0.000000000000000000e+00
 -4.789281170815229416e-03 8.288921788334846497e-03 0.000000000000000000e+00
 -4.769781604409217834e-03 8.228677324950695038e-03 0.000000000000000000e+00
 -4.751636646687984467e-03 8.172619156539440155e-03 0.000000000000000000e+00
 -4.734891932457685471e-03 8.120886981487274170e-03 0.000000000000000000e+00
 -4.719557706266641617e-03 8.073513396084308624e-03 0.000000000000000000e+00
 -4.705613944679498672e-03 8.030434139072895050e-03 0.000000000000000000e+00
 -4.693014547228813171e-03 7.991508580744266510e-03 0.000000000000000000e+00
 -4.681696183979511261e-03 7.956540212035179138e-03 0.000000000000000000e+00
 -4.671580623835325241e-03 7.925289683043956757e-03 0.000000000000000000e+00
 -4.662582650780677795e-03 7.897489704191684723e-03 0.000000000000000000e+00
 -4.654610995203256607e-03 7.872862741351127625e-03 0.000000000000000000e+00
 -5.126267205923795700e-03 9.645584039390087128e-03 0.000000000000000000e+00
 -5.118325818330049515e-03 9.620628319680690765e-03 0.000000000000000000e+00
 -5.109361838549375534e-03 9.592457674443721771e-03 0.000000000000000000e+00
 -5.099284928292036057e-03 9.560788981616497040e-03 0.000000000000000000e+00
 -5.088009405881166458e-03 9.525354020297527313e-03 0.000000000000000000e+00
 -5.075457505881786346e-03 9.485909715294837952e-03 0.000000000000000000e+00
 -5.061566364020109177e-03 9.442254900932312012e-03 0.000000000000000000e+00
 -5.046290345489978790e-03 9.394248947501182556e-03 0.000000000000000000e+00
 -5.029609426856040955e-03 9.341826662421226501e-03 0.000000000000000000e+00
 -5.011532921344041824e-03 9.285020641982555389e-03 0.000000000000000000e+00
 -4.992106929421424866e-03 9.223972447216510773e-03 0.000000000000000000e+00
 -4.971416201442480087e-03 9.158948436379432678e-03 0.000000000000000000e+00
 -4.949586465954780579e-03 9.090346284210681915e-03 0.000000000000000000e+00
 -4.926784895360469818e-03 9.018690325319766998e-03 0.000000000000000000e+00
 -4.903216846287250519e-03 8.944625034928321838e-03 0.000000000000000000e+00
 -4.879118409007787704e-03 8.868893608450889587e-03 0.000000000000000000e+00
 -4.854748491197824478e-03 8.792309090495109558e-03 0.000000000000000000e+00
 -4.830379039049148560e-03 8.715725503861904144e-03 0.000000000000000000e+00
 -4.806280601769685745e-03 8.639993146061897278e-03 0.000000000000000000e+00
 -4.782712087035179138e-03 8.565927855670452118e-03 0.000000000000000000e+00
 -4.759910982102155685e-03 8.494271896779537201e-03 0.000000000000000000e+00
 -4.738081246614456177e-03 8.425669744610786438e-03 0.000000000000000000e+00
 -4.717390052974224091e-03 8.360646665096282959e-03 0.000000000000000000e+00
 -4.697964061051607132e-03 8.299598470330238342e-03 0.000000000000000000e+00
 -4.679888021200895309e-03 8.242791518568992615e-03 0.000000000000000000e+00
 -4.663206636905670166e-03 8.190369233489036560e-03 0.000000000000000000e+00
 -4.647930618375539780e-03 8.142363280057907104e-03 0.000000000000000000e+00
 -4.634039476513862610e-03 8.098708465695381165e-03 0.000000000000000000e+00
[...]
<CellData>
 <DataArray Name="pos.x" type="Float32" NumberOfComponents="1" format="ascii">
 -5.304335557189937718e-03
 -5.295806800804974540e-03
 -5.286200566544680540e-03
 -5.275428190791569584e-03
 -5.263407473857501309e-03
 -5.250067234731438902e-03
 -5.235352535681055478e-03
 -5.219230367839409156e-03
 -5.201695460182315968e-03
 -5.182775743291813224e-03
 -5.162536890030960078e-03
 -5.141085297690425361e-03
 -5.118568900909726584e-03
 -5.095175334052125769e-03
 -5.071127199953904922e-03
 -5.046674527675740901e-03
 -5.022084866797948098e-03
 -4.997631802539185056e-03
 -4.973582914255918197e-03
 -4.950188286294873556e-03
 -4.927670594707081637e-03
 -4.906217555709176635e-03
 -4.885977185212651321e-03
 -4.867055953551526273e-03
 -4.849519593231821357e-03
 -4.833396078622090829e-03
 -4.818680166567404499e-03
 -4.805338861856770991e-03
 -4.793317228907753060e-03
 -4.782544080422084475e-03
 -4.772937204905055263e-03
 -4.764407923902722573e-03
 -5.232018987783778989e-03
 -5.223519334645872897e-03
 -5.213945880331739141e-03
 -5.203210263768125177e-03
 -5.191230565753355425e-03
 -5.177935848171029767e-03
 -5.163271360759526078e-03
 -5.147204207306591874e-03
 -5.129729134802241824e-03
 -5.110873978562468188e-03
 -5.090704187409899814e-03
 -5.069325795640376893e-03
 -5.046886233166727673e-03
 -5.023572494157029118e-03
 -4.999606421917613015e-03
 -4.975237192372143798e-03
 -4.950731442149435869e-03
 -4.926361822887601570e-03
 -4.902395000821926224e-03
 -4.879080206847311897e-03
 -4.856639357067171238e-03
 -4.835259527034897233e-03
 -4.815088227469963358e-03
 -4.796231565292361290e-03
 -4.778755048622869601e-03
 -4.762686556308935899e-03
 -4.748020863046786312e-03
 -4.734725086195237104e-03
 -4.722744477627349204e-03
 -4.712008092969228838e-03
 -4.702434001278349950e-03
 -4.693933826724909844e-03
 -5.158960445118393294e-03
 -5.150491892200943431e-03
 -5.140953467109644556e-03
 -5.130257132076828687e-03
 -5.118321267638634674e-03
 -5.105075195239830096e-03
 -5.090464364954215559e-03
 -5.074456000948471095e-03
 -5.057044869454838977e-03
 -5.038258703972880309e-03
 -5.018162713891547062e-03
 -4.996862545580991327e-03
 -4.974505089568015924e-03
 -4.951276655868680661e-03
 -4.927398276118399346e-03
 -4.903118214545641382e-03
 -4.878702132174062012e-03
 -4.854421683003480419e-03
 -4.830542557505732720e-03
 -4.807313074585862350e-03
 -4.784954338285418024e-03
 -4.763652739569010364e-03
 -4.743555249334557335e-03
 -4.724767586183491880e-03
 -4.707355018481671795e-03
 -4.691345323020893431e-03
 -4.676733293586265300e-03
 -4.663486167837584649e-03
 -4.651549397966915113e-03
 -4.640852299191122396e-03
 -4.631313240363741680e-03
 -4.622844169039013774e-03
 -5.085158790870374611e-03
 -5.076723438470319080e-03
 -5.067222408253629386e-03
 -5.056568007597369782e-03
 -5.044678937019929886e-03
 -5.031484795057700361e-03
 -5.016931245648881092e-03
 -5.000985641464252701e-03
 -4.983642769269989656e-03
 -4.964930253859006076e-03
 -4.944913048999504540e-03
 -4.923696386914919350e-03
 -4.901426582292973781e-03
 -4.878289214769868619e-03
 -4.854504449470845896e-03
 -4.830319577341424253e-03
 -4.805999217905990162e-03
 -4.781813960153690271e-03
 -4.758028452909144300e-03
 -4.734890041519620486e-03
 -4.712618963154110302e-03
 -4.691400877988502298e-03
 -4.671382180676996766e-03
 -4.652668175308682062e-03
 -4.635323874328097990e-03
 -4.619376945598810749e-03
 -4.604822203295868589e-03
 -4.591627013511053422e-03
 -4.579737042284711714e-03
 -4.569081881952046995e-03
 -4.559580221405399800e-03
 -4.551144353412820732e-03
 -5.010612826836016546e-03
 -5.002212880703606201e-03
 -4.992751729790730585e-03
 -4.982142049551977273e-03
 -4.970302881750641479e-03
 -4.957164120424814233e-03
 -4.942671657584833851e-03
 -4.926792982939427051e-03
 -4.909522905144648834e-03
 -4.890888933052929544e-03
 -4.870955747810511161e-03
 -4.849828139957635363e-03
 -4.827651810062548801e-03
 -4.804611558830314787e-03
 -4.780926627286252902e-03
 -4.756843268413309123e-03
 -4.732624991033762378e-03
 -4.708541248370950658e-03
 -4.684855578410315226e-03
 -4.661814288282506609e-03
 -4.639636690718420761e-03
 -4.618507666585859421e-03
 -4.598572996042969881e-03
 -4.579937541156621321e-03
 -4.562666041471001056e-03
 -4.546786048702936359e-03
 -4.532292398784094553e-03
 -4.519152594775915389e-03
 -4.507312530776744902e-03
 -4.496702094648709867e-03
 -4.487240316578537669e-03
 -4.478839857479109503e-03
 -4.935321294930063336e-03
 -4.926959068401545565e-03
 -4.917540402398480615e-03
 -4.906978364506401832e-03
 -4.895192360030781696e-03
 -4.882112597821288216e-03
 -4.867685212860439412e-03
 -4.851877840845441985e-03
 -4.834685313744448848e-03
 -4.816135016882183185e-03
 -4.796291340954306724e-03
 -4.775258605939616298e-03
 -4.753181858137440867e-03
 -4.730245068407002394e-03
 -4.706666493272899064e-03
 -4.682691279923332020e-03
 -4.658581753899605250e-03
 -4.634606158454028860e-03
 -4.611026848164861969e-03
 -4.588089024132749674e-03
 -4.566011014276983269e-03
 -4.544976869269982435e-03
 -4.525131714654223765e-03
 -4.506579941621321854e-03
 -4.489385999008200200e-03
 -4.473577314812989328e-03
 -4.459148748156729729e-03
 -4.446067948025920515e-03
 -4.434281051477710969e-03
 -4.423718261207687519e-03
 -4.414298970992474452e-03
 -4.405936233935481283e-03
 -4.859282877187137521e-03
 -4.850960793314758150e-03
 -4.841587341406015932e-03
 -4.831076006368650519e-03
 -4.819346580407540132e-03
 -4.806329607408081975e-03
 -4.791971480931932204e-03
 -4.776239992039940478e-03
 -4.759129997502606520e-03
 -4.740668751170290865e-03
 -4.720920334614258154e-03
 -4.699988567004191424e-03
 -4.678017798319963547e-03
 -4.655191116243184712e-03
 -4.631725729536001653e-03
 -4.607865608541223540e-03
 -4.583871819499787253e-03
 -4.560011317967171789e-03
 -4.536545199105292483e-03
 -4.513717486953546486e-03
 -4.491745461381868587e-03
 -4.470812289565323332e-03
 -4.451062400407397764e-03
 -4.432599684002645063e-03
 -4.415488279827015257e-03
 -4.399755484229196656e-03
 -4.385396181019231461e-03
 -4.372378174488726968e-03
 -4.360647860261233390e-03
 -4.350135776089033082e-03
 -4.340761702690054853e-03
 -4.332439110545473378e-03
 -4.782496195761092028e-03
 -4.774216789445774774e-03
 -4.764891406793246922e-03
 -4.754433976390535881e-03
 -4.742764701775592506e-03
 -4.729814483026211630e-03
 -4.715529988613052954e-03
 -4.699879174766499572e-03
 -4.682856924619752288e-03
 -4.664490352235499751e-03
 -4.644843210526126975e-03
 -4.624018786208244046e-03
 -4.602160688951625021e-03
 -4.579451067468963583e-03
 -4.556106016576863017e-03
 -4.532368255444527670e-03
 -4.508497511483944807e-03
 -4.484759371240326295e-03
 -4.461413590940217777e-03
 -4.438702943251829174e-03
 -4.416843593838314617e-03
 -4.396017770612416220e-03
 -4.376369161875476310e-03
 -4.358001125006041344e-03
 -4.340977470604399403e-03
 -4.325325355071647955e-03
 -4.311039688475951613e-03
 -4.298088440225771890e-03
 -4.286418280840984321e-03
 -4.275960104284892878e-03
 -4.266634102647143441e-03
 -4.258354190138187965e-03
 -4.704959812924995426e-03
 -4.696725733046642169e-03
 -4.687451403191663681e-03
 -4.677051223166614306e-03
 -4.665445833375263598e-03
 -4.652566512197526920e-03
 -4.638360220074168316e-03
 -4.622795088654436946e-03
 -4.605866029063918066e-03
 -4.587600006891469004e-03
 -4.568060425977783084e-03
 -4.547350007521607819e-03
 -4.525611574913774270e-03
 -4.503026279599217294e-03
 -4.479809033292458595e-03
 -4.456201226317735298e-03
 -4.432461164154395325e-03
 -4.408852979367616949e-03
 -4.385635006154277316e-03
 -4.363048688158714487e-03
 -4.341309007703556336e-03
 -4.320597195167227671e-03
 -4.301056152306205992e-03
 -4.282788670742245646e-03
 -4.265858211806847211e-03
 -4.250291783280731733e-03
 -4.236084323130151312e-03
 -4.223203976133508251e-03
 -4.211597704769267335e-03
 -4.201196781319685956e-03
 -4.191921834774666421e-03
 -4.183687250609862025e-03
 -4.626672231071493613e-03
 -4.618486242619946475e-03
 -4.609266079883035834e-03
 -4.598926642634240669e-03
 -4.587389034794052932e-03
 -4.574584936123147344e-03
 -4.560461616842611740e-03
 -4.544987394718176879e-03
 -4.528157210569806052e-03
 -4.509997872446211593e-03
 -4.490572413808900307e-03
 -4.469982955826106580e-03
 -4.448371487626551560e-03
 -4.425918102534639673e-03
 -4.402836456974209590e-03
 -4.379366531351280671e-03
 -4.355765122465199597e-03
 -4.332294820207176038e-03
 -4.309212450007229162e-03
 -4.286758045428359747e-03
 -4.265145333287170999e-03
 -4.244554485600270273e-03
 -4.225127569622465044e-03
 -4.206966776727176852e-03
 -4.190135197689230651e-03
 -4.174659682616823145e-03
 -4.160535199083972326e-03
 -4.147730077941849669e-03
 -4.136191591438367898e-03
 -4.125851413251028707e-03
 -4.116630635917624577e-03
 -4.108444144922510782e-03
 -4.547631892710999636e-03
 -4.539496878919169719e-03
 -4.530334130800140260e-03
 -4.520059078072646321e-03
 -4.508593315964963370e-03
 -4.495868949683597474e-03
 -4.481833577801395442e-03
 -4.466455715356889428e-03
 -4.449730334637992495e-03
 -4.431684076700604172e-03
 -4.412379582409662292e-03
 -4.391918336914095444e-03
 -4.370441445047539702e-03
 -4.348127878558996628e-03
 -4.325189963307697616e-03
 -4.301866185240667967e-03
 -4.278411742021296163e-03
 -4.255087588380260591e-03
 -4.232148950532664544e-03
 -4.209834367436412865e-03
 -4.188356235149947975e-03
 -4.167893603896948712e-03
 -4.148587656421158336e-03
 -4.130539947881513643e-03
 -4.113813176295787015e-03
 -4.098434024659620457e-03
 -4.084397491938349459e-03
 -4.071672106214853024e-03
 -4.060205468079689482e-03
 -4.049929676668411263e-03
 -4.040766315854997862e-03
 -4.032630801104513177e-03
 -4.467837180472953099e-03
 -4.459756144945667064e-03
 -4.450654194524979526e-03
 -4.440447320102688424e-03
 -4.429057637166422187e-03
 -4.416417701437956936e-03
 -4.402475459189239028e-03
 -4.387199634352350643e-03
 -4.370585232534245079e-03
 -4.352658717948456463e-03
 -4.333482315720200463e-03
 -4.313156837488243966e-03
 -4.291822451671092713e-03
 -4.269656942338529403e-03
 -4.246871226370216995e-03
 -4.223702207184397428e-03
 -4.200403389076930519e-03
 -4.177233995269006780e-03
 -4.154447558536945341e-03
 -4.132281035179933421e-03
 -4.110945412102319681e-03
 -4.090618551655071308e-03
 -4.071440699972433269e-03
 -4.053512738529029165e-03
 -4.036896949458483076e-03
 -4.021619838808090409e-03
 -4.007676438791815329e-03
 -3.995035486350030640e-03
 -3.983644929763591365e-03
 -3.973437318694046649e-03
 -3.964334757299663864e-03
 -3.956253222250469617e-03
 -4.387286417103464405e-03
 -4.379262485949916676e-03
 -4.370224854288460963e-03
 -4.360090106685701565e-03
 -4.348780909020952268e-03
 -4.336230293622421461e-03
 -4.322386574598248432e-03
 -4.307218696870084886e-03
 -4.290721701287755242e-03
 -4.272921864974532809e-03
 -4.253880973228109028e-03
 -4.233699125159773660e-03
 -4.212515498525971382e-03
 -4.190506620920532097e-03
 -4.167881918629936025e-03
 -4.144876620883684339e-03
 -4.121742440534354943e-03
 -4.098736769015607663e-03
 -4.076111347598256919e-03
 -4.054101458275118433e-03
 -4.032916597203603515e-03
 -4.012733370084767617e-03
 -3.993691032218817626e-03
 -3.975889752396421888e-03
 -3.959391372796023691e-03
 -3.944222212279225280e-03
 -3.930377338240677310e-03
 -3.917825708577983394e-03
 -3.906515639398709487e-03
 -3.896380156981731503e-03
 -3.887341915897917725e-03
 -3.879317486520754421e-03
 -4.305977865465659103e-03
 -4.298014289430211743e-03
 -4.289044637969794717e-03
 -4.278986123123077086e-03
 -4.267761992493917036e-03
 -4.255305782150243035e-03
 -4.241566194974508326e-03
 -4.226512409456118294e-03
 -4.210139503690236117e-03
 -4.192473557053180006e-03
 -4.173575889968425025e-03
 -4.153545848446459597e-03
 -4.132521563174779491e-03
 -4.110678233731275208e-03
 -4.088223710944163987e-03
 -4.065391454539307031e-03
 -4.042431283941653151e-03
 -4.019598654520617487e-03
 -3.997143414063633084e-03
 -3.975299074956463626e-03
 -3.954273557760281006e-03
 -3.934242140006542071e-03
 -3.915343029773295756e-03
 -3.897675642612145105e-03
 -3.881301355713670520e-03
 -3.866246290107277443e-03
 -3.852505550377600691e-03
 -3.840048327960862880e-03
 -3.828823327731548792e-03
 -3.818764079716149579e-03
 -3.809793820228943046e-03
 -3.801829747140650622e-03
 -4.223909728537088813e-03
 -4.216009885131036770e-03
 -4.207112018094659282e-03
 -4.197134002054082533e-03
 -4.185999698893051214e-03
 -4.173643176608947403e-03
 -4.160013548614687265e-03
 -4.145080240036219839e-03
 -4.128838368294643173e-03
 -4.111313803947114730e-03
 -4.092567376520635063e-03
 -4.072697636770939052e-03
 -4.051841609710764985e-03
 -4.030173092574209325e-03
 -4.007898272556561711e-03
 -3.985248740850251201e-03
 -3.962472317490624805e-03
 -3.939822413440416393e-03
 -3.917546877048107799e-03
 -3.895877352073805720e-03
 -3.875020095324002451e-03
 -3.855148981849880994e-03
 -3.836401113918619463e-03
 -3.818875111704675245e-03
 -3.802631861400890181e-03
 -3.787697275142379826e-03
 -3.774066496790739154e-03
 -3.761708964392403067e-03
 -3.750573793345371703e-03
 -3.740595045612394708e-03
 -3.731696571804072899e-03
 -3.723796232400343464e-03
 -4.141080149409968013e-03
 -4.133247545041906189e-03
 -4.124425411833942089e-03
 -4.114532323455368998e-03
 -4.103492789866506653e-03
 -4.091241440260259474e-03
 -4.077727821166225904e-03
 -4.062921617914242063e-03
 -4.046817989412415141e-03
 -4.029442585904811046e-03
 -4.010855719007152230e-03
 -3.991155100458884837e-03
 -3.970476588756825104e-03
 -3.948992501627434162e-03
 -3.926907271095700022e-03
 -3.904450517011113890e-03
 -3.881867950014984432e-03
 -3.859410824185264925e-03
 -3.837324878432132186e-03
 -3.815839785091060428e-03
 -3.795160045689892955e-03
 -3.775458055651047338e-03
 -3.756869750604848596e-03
 -3.739492911600853474e-03
 -3.723387906830570148e-03
 -3.708580428049804319e-03
 -3.695065660562589418e-03
 -3.682813302596314384e-03
 -3.671772902659070550e-03
 -3.661879083915004548e-03
 -3.653056345065783250e-03
 -3.645223245653244227e-03
 -4.057487211289224210e-03
 -4.049725483396092798e-03
 -4.040983181003019592e-03
 -4.031179614638726386e-03
 -4.020239977400879954e-03
 -4.008099490037271388e-03
 -3.994708155624196282e-03
 -3.980035933770519931e-03
 -3.964078027112537261e-03
 -3.946859853659323396e-03
 -3.928441179091245704e-03
 -3.908918830736574958e-03
 -3.888427437461938058e-03
 -3.867137757441436920e-03
 -3.845252372571709119e-03
 -3.822998824709763783e-03
 -3.800620600987065015e-03
 -3.778366681916463417e-03
 -3.756480582858719598e-03
 -3.735189898083654189e-03
 -3.714697278894161982e-03
 -3.695173561051225825e-03
 -3.676753450447693954e-03
 -3.659533843624259829e-03
 -3.643574562757287069e-03
 -3.628901067307496731e-03
 -3.615508586268125109e-03
 -3.603367092124766264e-03
 -3.592426589926001404e-03
 -3.582622294396254920e-03
 -3.573879387386595750e-03
 -3.566117165315514041e-03
 -3.973128937490279233e-03
 -3.965441856668958098e-03
 -3.956783632058690284e-03
 -3.947074350249901199e-03
 -3.936239923820031988e-03
 -3.924216196543287190e-03
 -3.910953652329973024e-03
 -3.896422539658825519e-03
 -3.880618107218541946e-03
 -3.863565528424631537e-03
 -3.845323993974300754e-03
 -3.825989399727772276e-03
 -3.805695079499554941e-03
 -3.784610148936127638e-03
 -3.762935241373942773e-03
 -3.740895710123946349e-03
 -3.718732700515648294e-03
 -3.696692798543674448e-03
 -3.675017177731168799e-03
 -3.653931243735611140e-03
 -3.633635699211423212e-03
 -3.614299737294070919e-03
 -3.596056768726452538e-03
 -3.579002758493135886e-03
 -3.563196953714883354e-03
 -3.548664569205055470e-03
 -3.535400879973720368e-03
 -3.523376147357097816e-03
 -3.512540857232885130e-03
 -3.502830847355769498e-03
 -3.494172019067945389e-03
 -3.486484444864628406e-03
 -3.888003291437464991e-03
 -3.880394763575633395e-03
 -3.871825016098483403e-03
 -3.862214952265882566e-03
 -3.851491241782721304e-03
 -3.839590384048934945e-03
 -3.826463368968802126e-03
 -3.812080749004846669e-03
 -3.796437821306290501e-03
 -3.779559501894062378e-03
 -3.761504376392881422e-03
 -3.742367360451390006e-03
 -3.722280425063454173e-03
 -3.701410957397836821e-03
 -3.679957540267402190e-03
 -3.658143223918415045e-03
 -3.636206689341931527e-03
 -3.614392002721734855e-03
 -3.592937873209617067e-03
 -3.572067403336473112e-03
 -3.551979245151981428e-03
 -3.532840863222889202e-03
 -3.514784305380853381e-03
 -3.497904556317875911e-03
 -3.482260258014951895e-03
 -3.467876367841384033e-03
 -3.454748209234892106e-03
 -3.442846347498305579e-03
 -3.432121774497724851e-03
 -3.422510983617918154e-03
 -3.413940633338514736e-03
 -3.406331612838199747e-03
 </DataArray>
 <DataArray Name="pos.y" type="Float32" NumberOfComponents="1" format="ascii">
 9.410496674629042699e-03
 9.384810421457173354e-03
 9.355879103208975325e-03
 9.323435689613131933e-03
 9.287232617964779474e-03
 9.247055510765317746e-03
 9.202738910771534817e-03
 9.154183404416363010e-03
 9.101373116832348759e-03
 9.044392167201308411e-03
 8.983438344006675416e-03
 8.918832086432876283e-03
 8.851018932660091945e-03
 8.780563985447548125e-03
 8.708137662913352159e-03
 8.634492983371783864e-03
 8.560435732091165387e-03
 8.486789872012663258e-03
 8.414361278081814929e-03
 8.343903135119300901e-03
 8.276086081746382439e-03
 8.211475467240663892e-03
 8.150517074552091415e-03
 8.093531562851290911e-03
 8.040716900250462554e-03
 7.992157337801994443e-03
 7.947837084575705077e-03
 7.907656768129741123e-03
 7.871450937698242292e-03
 7.839005196846049461e-03
 7.810071947309899822e-03
 7.784384114136270842e-03
 9.500076183612364555e-03
 9.474038659001806847e-03
 9.444711691387641314e-03
 9.411824598709121401e-03
 9.375126432699228129e-03
 9.334399884142322024e-03
 9.289477233102775774e-03
 9.240257706533881732e-03
 9.186725212558468842e-03
 9.128965020859226842e-03
 9.067177624950479436e-03
 9.001687846391921363e-03
 8.932947316552645317e-03
 8.861528866485038694e-03
 8.788112082809166475e-03
 8.713460281879364597e-03
 8.638390268531508792e-03
 8.563737273759069318e-03
 8.490318193093187443e-03
 8.418896511284799586e-03
 8.350152037958200393e-03
 8.284657853478370401e-03
 8.222865836754951127e-03
 8.165101031820791791e-03
 8.111564113843353074e-03
 8.062340485857025923e-03
 8.017414140858597840e-03
 7.976684347375502873e-03
 7.939983392010617827e-03
 7.907093946380054639e-03
 7.877765026248696040e-03
 7.851725904353781468e-03
 9.588929034343033134e-03
 9.562541155840993679e-03
 9.532819572370917691e-03
 9.499489959624560220e-03
 9.462297992629228535e-03
 9.421023438110289958e-03
 9.375496319351826757e-03
 9.325614507369222456e-03
 9.271361693823523473e-03
 9.212824295866110791e-03
 9.150205504933811573e-03
 9.083834513464165983e-03
 9.014169030042028588e-03
 8.941789593765634217e-03
 8.867384935755003722e-03
 8.791728643464880727e-03
 8.715648512492003147e-03
 8.639991012453392127e-03
 8.565584030705461829e-03
 8.493201325073911068e-03
 8.423531852296458830e-03
 8.357156403704529141e-03
 8.294532938318270598e-03
 8.235990873647642402e-03
 8.181733584899708589e-03
 8.131847624123916818e-03
 8.086316768835635424e-03
 8.045038932095282050e-03
 8.007844143786226054e-03
 7.974512151228652437e-03
 7.944788593047088371e-03
 7.918399099196461385e-03
 9.677030757754114323e-03
 9.650293587982130758e-03
 9.620178585565835466e-03
 9.586407795009689939e-03
 9.548723524883041824e-03
 9.506902626726314309e-03
 9.460772873886601209e-03
 9.410230785544189056e-03
 9.355259837538308990e-03
 9.295947590974929300e-03
 9.232499926987767710e-03
 9.165250395581480553e-03
 9.094662764060642765e-03
 9.021325256129111153e-03
 8.945935719613390055e-03
 8.869277981872107988e-03
 8.792190795907435519e-03
 8.715531835873913807e-03
 8.640139947645534765e-03
 8.566799131016451102e-03
 8.496207462165544094e-03
 8.428953420081182826e-03
 8.365501025534263085e-03
 8.306184056317509126e-03
 8.251208579549864156e-03
 8.200662292856063240e-03
 8.154528758952114126e-03
 8.112704539557136912e-03
 8.075017414682715555e-03
 8.041244216214181451e-03
 8.011127215867176396e-03
 7.984388411844315844e-03
 9.764356480331680757e-03
 9.737271229742919601e-03