<VTKFile type="UnstructuredGrid" byte_order="BigEndian">
<UnstructuredGrid><Piece NumberOfPoints="2546" NumberOfCells="2394">
<Points>
 <DataArray type="Float32" NumberOfComponents="3" format="ascii">
 -1.125000044703483582e-02 0.000000000000000000e+00 0.000000000000000000e+00
 -1.122511364519596100e-02 0.000000000000000000e+00 0.000000000000000000e+00
 -1.120023056864738464e-02 0.000000000000000000e+00 0.000000000000000000e+00
 -1.117535308003425598e-02 0.000000000000000000e+00 0.000000000000000000e+00
 -1.115048397332429886e-02 0.000000000000000000e+00 0.000000000000000000e+00
 -1.112562697380781174e-02 0.000000000000000000e+00 0.000000000000000000e+00
 -1.110078487545251846e-02 0.000000000000000000e+00 0.000000000000000000e+00
 -1.107595954090356827e-02 0.000000000000000000e+00 0.000000000000000000e+00
 -1.105115469545125961e-02 0.000000000000000000e+00 0.000000000000000000e+00
 -1.102637313306331635e-02 0.000000000000000000e+00 0.000000000000000000e+00
 -1.100161857903003693e-02 0.000000000000000000e+00 0.000000000000000000e+00
 -1.097689196467399597e-02 0.000000000000000000e+00 0.000000000000000000e+00
 -1.095219701528549194e-02 0.000000000000000000e+00 0.000000000000000000e+00
 -1.092753745615482330e-02 0.000000000000000000e+00 0.000000000000000000e+00
 -1.090291421860456467e-02 0.000000000000000000e+00 0.000000000000000000e+00
 -1.087833195924758911e-02 0.000000000000000000e+00 0.000000000000000000e+00
 -1.085379347205162048e-02 0.000000000000000000e+00 0.000000000000000000e+00
 -1.082929968833923340e-02 0.000000000000000000e+00 0.000000000000000000e+00
 -1.080485433340072632e-02 0.000000000000000000e+00 0.000000000000000000e+00
 -1.078046113252639771e-02 0.000000000000000000e+00 0.000000000000000000e+00
 -1.075612101703882217e-02 0.000000000000000000e+00 0.000000000000000000e+00
 -1.073183771222829819e-02 0.000000000000000000e+00 0.000000000000000000e+00
 -1.070761401206254959e-02 0.000000000000000000e+00 0.000000000000000000e+00
 -1.068345177918672562e-02 0.000000000000000000e+00 0.000000000000000000e+00
 -1.065935380756855011e-02 0.000000000000000000e+00 0.000000000000000000e+00
 -1.063532289117574692e-02 0.000000000000000000e+00 0.000000000000000000e+00
 -1.061136182397603989e-02 0.000000000000000000e+00 0.000000000000000000e+00
 -1.058747246861457825e-02 0.000000000000000000e+00 0.000000000000000000e+00
 -1.056365761905908585e-02 0.000000000000000000e+00 0.000000000000000000e+00
 -1.053991913795471191e-02 0.000000000000000000e+00 0.000000000000000000e+00
 -1.051626075059175491e-02 0.000000000000000000e+00 0.000000000000000000e+00
 -1.049268338829278946e-02 0.000000000000000000e+00 0.000000000000000000e+00
 -1.046919077634811401e-02 0.000000000000000000e+00 0.000000000000000000e+00
 -1.044578384608030319e-02 0.000000000000000000e+00 0.000000000000000000e+00
 -1.042246539145708084e-02 0.000000000000000000e+00 0.000000000000000000e+00
 -1.039923820644617081e-02 0.000000000000000000e+00 0.000000000000000000e+00
 -1.037610322237014771e-02 0.000000000000000000e+00 0.000000000000000000e+00
 -1.035306416451931000e-02 0.000000000000000000e+00 0.000000000000000000e+00
 -1.033012196421623230e-02 0.000000000000000000e+00 0.000000000000000000e+00
 -1.030727848410606384e-02 0.000000000000000000e+00 0.000000000000000000e+00
 -1.028453651815652847e-02 0.000000000000000000e+00 0.000000000000000000e+00
 -1.026189886033535004e-02 0.000000000000000000e+00 0.000000000000000000e+00
 -1.023936457931995392e-02 0.000000000000000000e+00 0.000000000000000000e+00
 -1.021693833172321320e-02 0.000000000000000000e+00 0.000000000000000000e+00
 -1.019462104886770248e-02 0.000000000000000000e+00 0.000000000000000000e+00
 -1.017241459339857101e-02 0.000000000000000000e+00 0.000000000000000000e+00
 -1.015031989663839340e-02 0.000000000000000000e+00 0.000000000000000000e+00
 -1.012833975255489349e-02 0.000000000000000000e+00 0.000000000000000000e+00
 -1.010647602379322052e-02 0.000000000000000000e+00 0.000000000000000000e+00
 -1.008472964167594910e-02 0.000000000000000000e+00 0.000000000000000000e+00
 -1.006310153752565384e-02 0.000000000000000000e+00 0.000000000000000000e+00
 -1.004159450531005859e-02 0.000000000000000000e+00 0.000000000000000000e+00
 -1.002020947635173798e-02 0.000000000000000000e+00 0.000000000000000000e+00
 -9.998948313295841217e-03 0.000000000000000000e+00 0.000000000000000000e+00
 -9.977811947464942932e-03 0.000000000000000000e+00 0.000000000000000000e+00
 -9.956802241504192352e-03 0.000000000000000000e+00 0.000000000000000000e+00
 -9.935920126736164093e-03 0.000000000000000000e+00 0.000000000000000000e+00
 -9.915166534483432770e-03 0.000000000000000000e+00 0.000000000000000000e+00
 -9.894543327391147614e-03 0.000000000000000000e+00 0.000000000000000000e+00
 -9.874050505459308624e-03 0.000000000000000000e+00 0.000000000000000000e+00
 -9.853691793978214264e-03 0.000000000000000000e+00 0.000000000000000000e+00
 -9.833465330302715302e-03 0.000000000000000000e+00 0.000000000000000000e+00
 -9.813373908400535583e-03 0.000000000000000000e+00 0.000000000000000000e+00
 -9.793417528271675110e-03 0.000000000000000000e+00 0.000000000000000000e+00
 -9.773598052561283112e-03 0.000000000000000000e+00 0.000000000000000000e+00
 -9.753916412591934204e-03 0.000000000000000000e+00 0.000000000000000000e+00
 -9.734372608363628387e-03 0.000000000000000000e+00 0.000000000000000000e+00
 -9.714967571198940277e-03 0.000000000000000000e+00 0.000000000000000000e+00
 -9.695703163743019104e-03 0.000000000000000000e+00 0.000000000000000000e+00
 -9.676578454673290253e-03 0.000000000000000000e+00 0.000000000000000000e+00
 -9.657595306634902954e-03 0.000000000000000000e+00 0.000000000000000000e+00
 -9.638754650950431824e-03 0.000000000000000000e+00 0.000000000000000000e+00
 -9.620056487619876862e-03 0.000000000000000000e+00 0.000000000000000000e+00
 -9.601500816643238068e-03 0.000000000000000000e+00 0.000000000000000000e+00
 -9.583088569343090057e-03 0.000000000000000000e+00 0.000000000000000000e+00
 -9.564820677042007446e-03 0.000000000000000000e+00 0.000000000000000000e+00
 -9.546697139739990234e-03 0.000000000000000000e+00 0.000000000000000000e+00
 -9.528718888759613037e-03 0.000000000000000000e+00 0.000000000000000000e+00
 -9.510885924100875854e-03 0.000000000000000000e+00 0.000000000000000000e+00
 -9.493198245763778687e-03 0.000000000000000000e+00 0.000000000000000000e+00
 -9.475655853748321533e-03 0.000000000000000000e+00 0.000000000000000000e+00
 -9.458260610699653625e-03 0.000000000000000000e+00 0.000000000000000000e+00
 -9.441010653972625732e-03 0.000000000000000000e+00 0.000000000000000000e+00
 -9.423907846212387085e-03 0.000000000000000000e+00 0.000000000000000000e+00
 -9.406951256096363068e-03 0.000000000000000000e+00 0.000000000000000000e+00
 -9.390140883624553680e-03 0.000000000000000000e+00 0.000000000000000000e+00
 -9.373477660119533539e-03 0.000000000000000000e+00 0.000000000000000000e+00
 -9.356960654258728027e-03 0.000000000000000000e+00 0.000000000000000000e+00
 -9.340590797364711761e-03 0.000000000000000000e+00 0.000000000000000000e+00
 -9.324368089437484741e-03 0.000000000000000000e+00 0.000000000000000000e+00
 -9.308290667831897736e-03 0.000000000000000000e+00 0.000000000000000000e+00
 -9.292360395193099976e-03 0.000000000000000000e+00 0.000000000000000000e+00
 -9.276576340198516846e-03 0.000000000000000000e+00 0.000000000000000000e+00
 -9.260938502848148346e-03 0.000000000000000000e+00 0.000000000000000000e+00
 -9.245446883141994476e-03 0.000000000000000000e+00 0.000000000000000000e+00
 -9.230100549757480621e-03 0.000000000000000000e+00 0.000000000000000000e+00
 -9.214899502694606781e-03 0.000000000000000000e+00 0.000000000000000000e+00
 -9.199842810630798340e-03 0.000000000000000000e+00 0.000000000000000000e+00
 -9.184932336211204529e-03 0.000000000000000000e+00 0.000000000000000000e+00
 -9.170165285468101501e-03 0.000000000000000000e+00 0.000000000000000000e+00
 -9.155542589724063873e-03 0.000000000000000000e+00 0.000000000000000000e+00
 -9.141063317656517029e-03 0.000000000000000000e+00 0.000000000000000000e+00
 -9.126727469265460968e-03 0.000000000000000000e+00 0.000000000000000000e+00
 -9.112534113228321075e-03 0.000000000000000000e+00 0.000000000000000000e+00
 -9.098483249545097351e-03 0.000000000000000000e+00 0.000000000000000000e+00
 -9.084573946893215179e-03 0.000000000000000000e+00 0.000000000000000000e+00
 -9.070805273950099945e-03 0.000000000000000000e+00 0.000000000000000000e+00
 -9.057178162038326263e-03 0.000000000000000000e+00 0.000000000000000000e+00
 -9.043690748512744904e-03 0.000000000000000000e+00 0.000000000000000000e+00
 -9.030343033373355865e-03 0.000000000000000000e+00 0.000000000000000000e+00
 -9.017134085297584534e-03 0.000000000000000000e+00 0.000000000000000000e+00
 -9.004062972962856293e-03 0.000000000000000000e+00 0.000000000000000000e+00
 -8.991129696369171143e-03 0.000000000000000000e+00 0.000000000000000000e+00
 -8.978334255516529083e-03 0.000000000000000000e+00 0.000000000000000000e+00
 -8.965673856437206268e-03 0.000000000000000000e+00 0.000000000000000000e+00
 -8.953149430453777313e-03 0.000000000000000000e+00 0.000000000000000000e+00
 -8.940760046243667603e-03 0.000000000000000000e+00 0.000000000000000000e+00
 -8.928504772484302521e-03 0.000000000000000000e+00 0.000000000000000000e+00
 -8.916382677853107452e-03 0.000000000000000000e+00 0.000000000000000000e+00
 -8.904392831027507782e-03 0.000000000000000000e+00 0.000000000000000000e+00
 -8.892535232007503510e-03 0.000000000000000000e+00 0.000000000000000000e+00
 -8.880808018147945404e-03 0.000000000000000000e+00 0.000000000000000000e+00
 -8.869212120771408081e-03 0.000000000000000000e+00 0.000000000000000000e+00
 -8.857744745910167694e-03 0.000000000000000000e+00 0.000000000000000000e+00
 -8.846405893564224243e-03 0.000000000000000000e+00 0.000000000000000000e+00
 -8.835194632411003113e-03 0.000000000000000000e+00 0.000000000000000000e+00
 -8.824110962450504303e-03 0.000000000000000000e+00 0.000000000000000000e+00
[...]
<CellData>
 <DataArray Name="pos.x" type="Float32" NumberOfComponents="1" format="ascii">
 -1.123730615940691548e-02
 -1.121241445411972661e-02
 -1.118752713148746941e-02
 -1.116264711187257667e-02
 -1.113777731221078995e-02
 -1.111292064464083212e-02
 -1.108808001514056951e-02
 -1.106325832217448790e-02
 -1.103845845533734348e-02
 -1.101368329402419889e-02
 -1.098893570609179790e-02
 -1.096421854654180614e-02
 -1.093953465621854380e-02
 -1.091488686051599565e-02
 -1.089027796809207034e-02
 -1.086571076962622104e-02
 -1.084118803655984703e-02
 -1.081671251987539710e-02
 -1.079228694890368295e-02
 -1.076791403012880566e-02
 -1.074359644602685890e-02
 -1.071933685393485630e-02
 -1.069513788493419749e-02
 -1.067100214275229324e-02
 -1.064693220271826016e-02
 -1.062293061070573863e-02
 -1.059899988213524290e-02
 -1.057514250099100654e-02
 -1.055136091886553669e-02
 -1.052765755404520137e-02
 -1.050403479060914302e-02
 -1.048049497757126518e-02
 -1.045704042805613646e-02
 -1.043367341849379959e-02
 -1.041039618785647228e-02
 -1.038721093693193223e-02
 -1.036411982761491907e-02
 -1.034112498225155108e-02
 -1.031822848299631529e-02
 -1.029543237122552794e-02
 -1.027273864696502670e-02
 -1.025014926836472287e-02
 -1.022766615120709183e-02
 -1.020529116843272611e-02
 -1.018302614973009418e-02
 -1.016087288113633885e-02
 -1.013883310467687468e-02
 -1.011690851804892058e-02
 -1.009510077432111338e-02
 -1.007341148168955369e-02
 -1.005184220324429473e-02
 -1.003039445679072307e-02
 -1.000906971467778982e-02
 -9.987869403691645998e-03
 -9.966794904944254255e-03
 -9.945847553835271762e-03
 -9.925028639997560825e-03
 -9.904339407317970870e-03
 -9.883781053955344870e-03
 -9.863354732412231082e-03
 -9.843061549616262396e-03
 -9.822902567041994631e-03
 -9.802878800853507754e-03
 -9.782991222084204755e-03
 -9.763240756830167399e-03
 -9.743628286475392725e-03
 -9.724154647944214386e-03
 -9.704820633983321856e-03
 -9.685626993439833132e-03
 -9.666574431607658294e-03
 -9.647663610550520630e-03
 -9.628895149479569510e-03
 -9.610269625136369162e-03
 -9.591787572190939651e-03
 -9.573449483676770011e-03
 -9.555255811428881030e-03
 -9.537206966543403802e-03
 -9.519303319856854337e-03
 -9.501545202438994517e-03
 -9.483932906099315843e-03
 -9.466466683912997185e-03
 -9.449146750756899638e-03
 -9.431973283856151871e-03
 -9.414946423351552157e-03
 -9.398066272860843354e-03
 -9.381332900077045053e-03
 -9.364746337355909014e-03
 -9.348306582305074622e-03
 -9.332013598425109926e-03
 -9.315867315694151621e-03
 -9.299867631218346545e-03
 -9.284014409850329178e-03
 -9.268307484830574927e-03
 -9.252746658433997490e-03
 -9.237331702605391937e-03
 -9.222062359622341943e-03
 -9.206938342742696652e-03
 -9.191959336857683655e-03
 -9.177124999147740284e-03
 -9.162434959756058164e-03
 -9.147888822430245287e-03
 -9.133486165185587119e-03
 -9.119226540976362039e-03
 -9.105109478335676743e-03
 -9.091134482049919793e-03
 -9.077301033797283841e-03
 -9.063608592810227030e-03
 -9.050056596527526059e-03
 -9.036644461227682709e-03
 -9.023371582687535891e-03
 -9.010237336807495889e-03
 -8.997241080253364290e-03
 -8.984382151087018722e-03
 -8.971659869382777458e-03
 -8.959073537850409732e-03
 -8.946622442455339289e-03
 -8.934305853013083804e-03
 -8.922123023793554486e-03
 -8.910073194127825918e-03
 -8.898155588969143895e-03
 -8.886369419500545278e-03
 -8.874713883689931346e-03
 -8.863188166861431933e-03
 -8.851791442245470626e-03
 -8.840522871540915789e-03
 -8.829381605446471465e-03
 -8.818366784198358385e-03
 -8.807477538087001359e-03
 -8.796712987987242299e-03
 -8.786072245851945378e-03
 -8.775554415216799825e-03
 -8.765158591695035306e-03
 -8.754883863441727601e-03
 -1.123628600277232388e-02
 -1.121138097825339144e-02
 -1.118648035106039294e-02
 -1.116158705130841644e-02
 -1.113670400566217460e-02
 -1.111183413595386721e-02
 -1.108698035781611503e-02
 -1.106214557930062029e-02
 -1.103733269953886126e-02
 -1.101254460738388882e-02
 -1.098778418006745271e-02
 -1.096305428187799129e-02
 -1.093835776284151316e-02
 -1.091369745742479767e-02
 -1.088907618324439462e-02
 -1.086449673980392251e-02
 -1.083996190723650679e-02
 -1.081547444508215196e-02
 -1.079103709106068662e-02
 -1.076665255989946862e-02
 -1.074232354214973637e-02
 -1.071805270304462647e-02
 -1.069384268138766705e-02
 -1.066969608844138724e-02
 -1.064561550687434174e-02
 -1.062160348970202402e-02
 -1.059766255928400007e-02
 -1.057379520633560353e-02
 -1.055000388896485709e-02
 -1.052629103175142106e-02
 -1.050265902485016979e-02
 -1.047911022312273538e-02
 -1.045564694530654905e-02
 -1.043227147321787104e-02
 -1.040898605097444023e-02
 -1.038579288426858850e-02
 -1.036269413966046590e-02
 -1.033969194392102622e-02
 -1.031678838338280155e-02
 -1.029398550334908319e-02
 -1.027128530753981459e-02
 -1.024868975753350994e-02
 -1.022620077230500246e-02
 -1.020382022774089965e-02
 -1.018154995622500870e-02
 -1.015939174624100674e-02
 -1.013734734202111250e-02
 -1.011541844322159760e-02
 -1.009360670463012484e-02
 -1.007191373591798285e-02
 -1.005034110141966863e-02
 -1.002889031993652903e-02
 -1.000756286459256184e-02
 -9.986360162710978053e-03
 -9.965283595718788662e-03
 -9.944334499098013772e-03
 -9.923514162353397686e-03
 -9.902823829019800558e-03
 -9.882264696695720191e-03
 -9.861837917111182170e-03
 -9.841544596220740126e-03
 -9.821385794319268531e-03
 -9.801362526204384848e-03
 -9.781475761345654468e-03
 -9.761726424087952339e-03
 -9.742115393891555633e-03
 -9.722643505575553208e-03
 -9.703311549605958888e-03
 -9.684120272394207071e-03
 -9.665070376629968096e-03
 -9.646162521620609345e-03
 -9.627397323672466645e-03
 -9.608775356471872808e-03
 -9.590297151508454451e-03
 -9.571963198488022198e-03
 -9.553773945796515538e-03
 -9.535729800961815703e-03
 -9.517831131130943811e-03
 -9.500078263574953871e-03
 -9.482471486196132962e-03
 -9.465011048073564831e-03
 -9.447697159980273512e-03
 -9.430529994955322987e-03
 -9.413509688865602174e-03
 -9.396636340985949423e-03
 -9.379910014586240186e-03
 -9.363330737522742100e-03
 -9.346898502868279321e-03
 -9.330613269497783219e-03
 -9.314474962732516641e-03
 -9.298483474970383952e-03
 -9.282638666309472181e-03
 -9.266940365199023352e-03
 -9.251388369091732150e-03
 -9.235982445076651101e-03
 -9.220722330557840421e-03
 -9.205607733890376621e-03
 -9.190638335054186758e-03
 -9.175813786307648878e-03
 -9.161133712860017667e-03
 -9.146597713522204229e-03
 -9.132205361370828237e-03
 -9.117956204434299328e-03
 -9.103849766315876002e-03
 -9.089885546889941992e-03
 -9.076063022932710084e-03
 -9.062381648800015010e-03
 -9.048840857063521551e-03
 -9.035440059164425580e-03
 -9.022178646072737465e-03
 -9.009055988900140782e-03
 -8.996071439569479355e-03
 -8.983224331419629310e-03
 -8.970513979849575881e-03
 -8.957939682930163641e-03
 -8.945500722025838750e-03
 -8.933196362400967760e-03
 -8.921025853818495902e-03
 -8.908988431137652986e-03
 -8.897083314913572724e-03
 -8.885309711957974435e-03
 -8.873666815932578986e-03
 -8.862153807907724445e-03
 -8.850769856914792247e-03
 -8.839514120513043693e-03
 -8.828385745311639887e-03
 -8.817383867523079233e-03
 -8.806507613477426721e-03
 -8.795756100136449540e-03
 -8.785128435615010764e-03
 -8.774623719672447128e-03
 -8.764241044200480821e-03
 -8.753979493708310619e-03
 -1.123425295845626587e-02
 -1.120933580552315595e-02
 -1.118442306437440401e-02
 -1.115951767473978909e-02
 -1.113462257286744472e-02
 -1.110974069014832206e-02
 -1.108487495171623510e-02
 -1.106002827508588242e-02
 -1.103520356877851251e-02
 -1.101040373096373939e-02
 -1.098563164811549447e-02
 -1.096089019366348200e-02
 -1.093618222668360854e-02
 -1.091151059057772835e-02
 -1.088687811178310968e-02
 -1.086228759849538171e-02
 -1.083774183940840879e-02
 -1.081324360247544990e-02
 -1.078879563368744313e-02
 -1.076440065587402038e-02
 -1.074006136753521273e-02
 -1.071578044167398151e-02
 -1.069156052468796247e-02
 -1.066740423524759757e-02
 -1.064331416323488141e-02
 -1.061929286868994009e-02
 -1.059534288078863365e-02
 -1.057146669685288427e-02
 -1.054766678139031945e-02
 -1.052394556515823427e-02
 -1.050030544427285606e-02
 -1.047674877932903634e-02
 -1.045327789456735809e-02
 -1.042989507707531467e-02
 -1.040660257601252331e-02
 -1.038340260187075106e-02
 -1.036029732577264245e-02
 -1.033728887880632462e-02
 -1.031437935138184402e-02
 -1.029157079264471364e-02
 -1.026886520989014548e-02
 -1.024626456805117179e-02
 -1.022377078919526824e-02
 -1.020138575206511015e-02
 -1.017911129164855710e-02
 -1.015694919879744050e-02
 -1.013490121986098877e-02
 -1.011296905637814290e-02
 -1.009115436477209943e-02
 -1.006945875611566822e-02
 -1.004788379590777075e-02
 -1.002643100387830624e-02
 -1.000510185385682094e-02
 -9.983897773628156586e-03
 -9.962820144872337053e-03
 -9.941870303095854192e-03
 -9.921049537602713575e-03
 -9.900359091525463492e-03
 -9.879800161840550723e-03
 -9.859373899452801571e-03
 -9.839081409288113339e-03
 -9.818923750416845217e-03
 -9.798901936213532532e-03
 -9.779016934543182174e-03
 -9.759269667959608735e-03
 -9.739661013950261237e-03
 -9.720191805189936848e-03
 -9.700862829832805970e-03
 -9.681674831810628545e-03
 -9.662628511182921875e-03
 -9.643724524466101844e-03
 -9.624963485032068597e-03
 -9.606345963493868531e-03
 -9.587872488119129205e-03
 -9.569543545276337770e-03
 -9.551359579878491296e-03
 -9.533320995864139058e-03
 -9.515428156671281237e-03
 -9.497681385762504411e-03
 -9.480080967125794483e-03
 -9.462627145814344470e-03
 -9.445320128500449969e-03
 -9.428160084030383012e-03
 -9.411147143987179733e-03
 -9.394281403302565808e-03
 -9.377562920807474417e-03
 -9.360991719883717671e-03
 -9.344567789041226258e-03
 -9.328291082550826258e-03
 -9.312161521080400406e-03
 -9.296178992317246162e-03
 -9.280343351614837866e-03
 -9.264654422642001896e-03
 -9.249111998037353247e-03
 -9.233715840051722606e-03
 -9.218465681218425758e-03
 -9.203361225014918337e-03
 -9.188402146521675029e-03
 -9.173588093091093743e-03
 -9.158918685016384162e-03
 -9.144393516189879695e-03
 -9.130012154784050010e-03
 -9.115774143902098670e-03
 -9.101679002262261231e-03
 -9.087726224833890185e-03
 -9.073915283531477916e-03
 -9.060245627845426447e-03
 -9.046716685523882237e-03
 -9.033327863191404489e-03
 -9.020078547038604469e-03
 -9.006968103426771233e-03
 -8.993995879556541603e-03
 -8.981161204086342970e-03
 -8.968463387769321296e-03
 -8.955901724072396278e-03
 -8.943475489797425917e-03
 -8.931183945681077374e-03
 -8.919026337023093498e-03
 -8.907001894258760252e-03
 -8.895109833562512419e-03
 -8.883349357428502180e-03
 -8.871719655250263903e-03
 -8.860219903873381431e-03
 -8.848849268184076286e-03
 -8.837606901629647266e-03
 -8.826491946783233955e-03
 -8.815503535865040416e-03
 -8.804640791292086405e-03
 -8.793902826157534020e-03
 -8.783288744783766117e-03
 -8.772797643185753502e-03
 -8.762428609587469969e-03
 -8.752180724889698643e-03
 -1.123120704978207776e-02
 -1.120627900534130854e-02
 -1.118135538691836239e-02
 -1.115643914371461203e-02
 -1.113153322141530871e-02
 -1.110664056081481395e-02
 -1.108176409641037016e-02
 -1.105690675502643550e-02
 -1.103207145442835352e-02
 -1.100726110196291810e-02
 -1.098247859319038608e-02
 -1.095772681054797866e-02
 -1.093300862201144683e-02
 -1.090832687977597373e-02
 -1.088368441895724500e-02
 -1.085908405630445564e-02
 -1.083452858892575144e-02
 -1.081002079305632899e-02
 -1.078556342281253300e-02
 -1.076115920900033544e-02
 -1.073681085792066794e-02
 -1.071252105022253709e-02
 -1.068829243975370595e-02
 -1.066412765246997282e-02
 -1.064002928533711381e-02
 -1.061599990528790984e-02
 -1.059204204818233602e-02
 -1.056815821783437491e-02
 -1.054435088502278690e-02
 -1.052062248656206872e-02
 -1.049697542440566206e-02
 -1.047341206476509919e-02
 -1.044993473726948605e-02
 -1.042654573416557963e-02
 -1.040324730953635923e-02
 -1.038004167856390256e-02
 -1.035693101682548002e-02
 -1.033391745962257240e-02
 -1.031100310133953486e-02
 -1.028818999484778021e-02
 -1.026548015093498890e-02
 -1.024287553778154870e-02
 -1.022037808045374828e-02
 -1.019798966045458617e-02
 -1.017571211528860327e-02
 -1.015354723808345808e-02
 -1.013149677721905499e-02
 -1.010956243602783959e-02
 -1.008774587249477994e-02
 -1.006604869901206109e-02
 -1.004447248215719138e-02
 -1.002301874252610296e-02
 -1.000168895456387229e-02
 -9.980484546466444548e-03
 -9.959406900081067479e-03
 -9.938457350877848845e-03
 -9.917637187902374196e-03
 -9.896947653816259502e-03
 -9.876389944919006930e-03
 -9.855965211230062473e-03
 -9.835674556593201195e-03
 -9.815519038799770668e-03
 -9.795499669762678524e-03
 -9.775617415679470346e-03
 -9.755873197275184011e-03
 -9.736267890020267393e-03
 -9.716802324407402061e-03
 -9.697477286235592006e-03
 -9.678293516927449769e-03
 -9.659251713868407738e-03
 -9.640352530761168992e-03
 -9.621596578009634568e-03
 -9.602984423121777371e-03
 -9.584516591128232690e-03
 -9.566193565027783854e-03
 -9.548015786244075029e-03
 -9.529983655100224618e-03
 -9.512097531323759902e-03
 -9.494357734536811727e-03
 -9.476764544802930568e-03
 -9.459318203147404694e-03
 -9.442018912127016217e-03
 -9.424866836382085611e-03
 -9.407862103220377900e-03
 -9.391004803207373547e-03
 -9.374294990755769122e-03
 -9.357732684753984967e-03
 -9.341317869159005208e-03
 -9.325050493643096544e-03
 -9.308930474218917589e-03
 -9.292957693872535077e-03
 -9.277132003225411691e-03
 -9.261453221176040376e-03
 -9.245921135550037168e-03
 -9.230535503779620232e-03
 -9.215296053546175731e-03
 -9.200202483454945554e-03
 -9.185254463715888940e-03
 -9.170451636785885777e-03
 -9.155793618064178574e-03
 -9.141279996551418194e-03
 -9.126910335524920578e-03
 -9.112684173206963764e-03
 -9.098601023425407011e-03
 -9.084660376304842799e-03
 -9.070861698900855100e-03
 -9.057204435884629729e-03
 -9.043688010189301907e-03
 -9.030311823674665866e-03
 -9.017075257766458615e-03
 -9.003977674118313068e-03
 -8.991018415241962269e-03
 -8.978196805146635914e-03
 -8.965512149973084433e-03
 -8.952963738625759060e-03
 -8.940550843370018153e-03
 -8.928272720469903473e-03
 -8.916128610786467137e-03
 -8.904117740376171417e-03
 -8.892239321068888189e-03
 -8.880492551085776218e-03
 -8.868876615583753606e-03
 -8.857390687246686350e-03
 -8.846033926831966751e-03
 -8.834805483736735826e-03
 -8.823704496529072988e-03
 -8.812730093497398581e-03
 -8.801881393167612297e-03
 -8.791157504828958982e-03
 -8.780557529041910572e-03
 -8.770080558133382803e-03
 -8.759725676701772198e-03
 -8.749491962085987132e-03
 -1.122714829986388649e-02
 -1.120221064639958554e-02
 -1.117727743296353417e-02
 -1.115235161805793254e-02
 -1.112743615665960986e-02
 -1.110253399881329893e-02
 -1.107764808822339631e-02
 -1.105278136087112575e-02
 -1.102793674361393118e-02
 -1.100311715282046438e-02
 -1.097832549299150758e-02
 -1.095356465541616649e-02
 -1.092883751681995516e-02
 -1.090414693804471133e-02
 -1.087949576273475848e-02
 -1.085488681604339020e-02
 -1.083032290335366951e-02
 -1.080580680902955455e-02
 -1.078134129517362150e-02
 -1.075692910041874638e-02
 -1.073257293873739783e-02
 -1.070827549826832391e-02
 -1.068403944018989776e-02
 -1.065986739759189859e-02
 -1.063576197439069712e-02
 -1.061172574427601475e-02
 -1.058776124967423723e-02
 -1.056387100073970589e-02
 -1.054005747440424703e-02
 -1.051632311341332143e-02
 -1.049267032543130425e-02
 -1.046910148216181023e-02
 -1.044561891850086417e-02
 -1.042222493173403791e-02
 -1.039892178075471109e-02
 -1.037571168531800127e-02
 -1.035259682534321428e-02
 -1.032957934023047072e-02
 -1.030666132823146799e-02
 -1.028384484584026273e-02
 -1.026113190723204789e-02
 -1.023852448372813972e-02
 -1.021602450329719969e-02
 -1.019363385010453593e-02
 -1.017135436407573187e-02
 -1.014918784051962140e-02
 -1.012713602976150415e-02
 -1.010520063683980306e-02
 -1.008338332120779952e-02
 -1.006168569649475673e-02
 -1.004010933028962570e-02
 -1.001865574395644984e-02
 -9.997326412495779677e-03
 -9.976122764431015477e-03
 -9.955046181714600345e-03
 -9.934097999702849388e-03
 -9.913279507124251114e-03
 -9.892591946100955450e-03
 -9.872036512193959820e-03
 -9.851614354484825031e-03
 -9.831326575671437210e-03
 -9.811174232221981859e-03
 -9.791158334518620596e-03
 -9.771279847063904164e-03
 -9.751539688693834640e-03
 -9.731938732822730323e-03
 -9.712477807714912925e-03
 -9.693157696779274024e-03
 -9.673979138888210913e-03
 -9.654942828725499374e-03
 -9.636049417138220496e-03
 -9.617299511536347295e-03
 -9.598693676295750460e-03
 -9.580232433182612334e-03
 -9.561916261801074041e-03
 -9.543745600068067464e-03
 -9.525720844672064605e-03
 -9.507842351602948869e-03
 -9.490110436637666513e-03
 -9.472525375900308145e-03
 -9.455087406378357220e-03
 -9.437796726497998945e-03
 -9.420653496694793988e-03
 -9.403657839985922126e-03
 -9.386809842577914856e-03
 -9.370109554458454573e-03
 -9.353556990023680073e-03
 -9.337152128680784383e-03
 -9.320894915509280940e-03
 -9.304785261863766227e-03
 -9.288823046050269372e-03
 -9.273008113959625709e-03
 -9.257340279723177967e-03
 -9.241819326388003505e-03
 -9.226445006559561707e-03
 -9.211217043093961401e-03
 -9.196135129745238238e-03
 -9.181198931857112097e-03
 -9.166408087019135842e-03
 -9.151762205764574568e-03
 -9.137260872212994017e-03
 -9.122903644778409399e-03
 -9.108690056819496172e-03
 -9.094619617319915639e-03
 -9.080691811560815188e-03
 -9.066906101788342956e-03
 -9.053261927867244790e-03
 -9.039758707968496496e-03
 -9.026395839194763585e-03
 -9.013172698264591831e-03
 -9.000088642140852482e-03
 -8.987143008686162421e-03
 -8.974335117298063574e-03
 -8.961664269549916503e-03
 -8.949129749797985964e-03
 -8.936730825837577510e-03
 -8.924466749488942086e-03
 -8.912336757210662097e-03
 -8.900340070721273963e-03
 -8.888475897556544561e-03
 -8.876743431699281664e-03
 -8.865141854124753557e-03
 -8.853670333376716106e-03
 -8.842328026150474141e-03
 -8.831114077825951564e-03
 -8.820027623017144200e-03
 -8.809067786119152699e-03
 -8.798233681827421701e-03
 -8.787524415659541191e-03
 -8.776939084467576258e-03
 -8.766476776939348403e-03
 -8.756136574098023762e-03
 -8.745917549757965467e-03
 -1.122207673159948682e-02
 -1.119713079667708153e-02
 -1.117218931554610564e-02
 -1.114725525585851494e-02
 -1.112233158171790394e-02
 -1.109742125225361177e-02
 -1.107252722022684412e-02
 -1.104765243060674453e-02
 -1.102279981918941575e-02
 -1.099797231120263306e-02
 -1.097317281993377171e-02
 -1.094840424536084288e-02
 -1.092366947280929389e-02
 -1.089897137160819943e-02
 -1.087431279377546779e-02
 -1.084969657271651032e-02
 -1.082512552193329314e-02
 -1.080060243377089363e-02
 -1.077613007816727482e-02
 -1.075171120143558062e-02
 -1.072734852506566222e-02
 -1.070304474454844730e-02
 -1.067880252824239019e-02
 -1.065462451622643976e-02
 -1.063051331923537540e-02
 -1.060647151757249107e-02
 -1.058250166008222262e-02
 -1.055860626314247645e-02
 -1.053478780969070543e-02
 -1.051104874827096802e-02
 -1.048739149213468932e-02
 -1.046381841834401541e-02
 -1.044033186694167011e-02
 -1.041693414012313974e-02
 -1.039362750146861046e-02
 -1.037041417519021444e-02
 -1.034729634542715798e-02
 -1.032427615556948813e-02
 -1.030135570761988098e-02
 -1.027853706158348215e-02
 -1.025582223491714601e-02
 -1.023321320196980862e-02
 -1.021071189351982489e-02
 -1.018832019628438355e-02
 -1.016603995251872013e-02
 -1.014387295961218481e-02
 -1.012182096974238200e-02
 -1.009988568956036135e-02
 -1.007806877990460002e-02
 -1.005637185555103251e-02
 -1.003479648501448551e-02
 -1.001334419035435942e-02
 -9.992016447042128408e-03
 -9.970814683848581647e-03
 -9.949740282764914234e-03
 -9.928794578964519890e-03
 -9.907978860780633848e-03
 -9.887294369739710667e-03
 -9.866742300597173415e-03
 -9.846323801434235523e-03
 -9.826039973753307108e-03
 -9.805891872630803294e-03
 -9.785880506878810031e-03
 -9.766006839244499235e-03
 -9.746271786629116807e-03
 -9.726676220347807780e-03
 -9.707220966394109612e-03
 -9.687906805743646751e-03
 -9.668734474682375013e-03
 -9.649704665151415117e-03
 -9.630818025117043185e-03
 -9.612075158960880356e-03