<VTKFile type="UnstructuredGrid" byte_order="BigEndian">
<UnstructuredGrid><Piece NumberOfPoints="627" NumberOfCells="576">
<Points>
 <DataArray type="Float32" NumberOfComponents="3" format="ascii">
 -8.197243325412273407e-03 3.756947815418243408e-03 0.000000000000000000e+00
 -8.188601583242416382e-03 3.749768016859889030e-03 0.000000000000000000e+00
 -8.178846910595893860e-03 3.741663414984941483e-03 0.000000000000000000e+00
 -8.167881518602371216e-03 3.732552519068121910e-03 0.000000000000000000e+00
 -8.155611343681812286e-03 3.722358029335737228e-03 0.000000000000000000e+00
 -8.141952566802501678e-03 3.711010096594691277e-03 0.000000000000000000e+00
 -8.126836270093917847e-03 3.698450746014714241e-03 0.000000000000000000e+00
 -8.110213093459606171e-03 3.684639465063810349e-03 0.000000000000000000e+00
 -8.092060685157775879e-03 3.669557860121130943e-03 0.000000000000000000e+00
 -8.072390221059322357e-03 3.653214778751134872e-03 0.000000000000000000e+00
 -8.051251061260700226e-03 3.635651199147105217e-03 0.000000000000000000e+00
 -8.028735406696796417e-03 3.616944188252091408e-03 0.000000000000000000e+00
 -8.004980161786079407e-03 3.597207600250840187e-03 0.000000000000000000e+00
 -7.980167865753173828e-03 3.576592542231082916e-03 0.000000000000000000e+00
 -7.954521104693412781e-03 3.555284114554524422e-03 0.000000000000000000e+00
 -7.928297854959964752e-03 3.533496288582682610e-03 0.000000000000000000e+00
 -7.901778444647789001e-03 3.511463291943073273e-03 0.000000000000000000e+00
 -7.875259965658187866e-03 3.489430295303463936e-03 0.000000000000000000e+00
 -7.849035784602165222e-03 3.467642469331622124e-03 0.000000000000000000e+00
 -7.823389023542404175e-03 3.446334041655063629e-03 0.000000000000000000e+00
 -7.798577193170785904e-03 3.425718983635306358e-03 0.000000000000000000e+00
 -7.774821948260068893e-03 3.405982162803411484e-03 0.000000000000000000e+00
 -7.752306293696165085e-03 3.387275151908397675e-03 0.000000000000000000e+00
 -7.731167133897542953e-03 3.369711805135011673e-03 0.000000000000000000e+00
 -7.711496669799089432e-03 3.353368723765015602e-03 0.000000000000000000e+00
 -7.693344261497259140e-03 3.338287118822336197e-03 0.000000000000000000e+00
 -7.676721084862947464e-03 3.324475837871432304e-03 0.000000000000000000e+00
 -7.661604788154363632e-03 3.311916487291455269e-03 0.000000000000000000e+00
 -7.647946011275053024e-03 3.300568554550409317e-03 0.000000000000000000e+00
 -7.635676302015781403e-03 3.290373831987380981e-03 0.000000000000000000e+00
 -7.624710444360971451e-03 3.281263168901205063e-03 0.000000000000000000e+00
 -7.614955771714448929e-03 3.273158567026257515e-03 0.000000000000000000e+00
 -7.606314029544591904e-03 3.265978768467903137e-03 0.000000000000000000e+00
 -8.166889660060405731e-03 3.860764438286423683e-03 0.000000000000000000e+00
 -8.158263750374317169e-03 3.853345056995749474e-03 0.000000000000000000e+00
 -8.148525841534137726e-03 3.844970138743519783e-03 0.000000000000000000e+00
 -8.137580007314682007e-03 3.835555166006088257e-03 0.000000000000000000e+00
 -8.125332184135913849e-03 3.825020510703325272e-03 0.000000000000000000e+00
 -8.111698552966117859e-03 3.813293995335698128e-03 0.000000000000000000e+00
 -8.096609264612197876e-03 3.800315549597144127e-03 0.000000000000000000e+00
 -8.080015890300273895e-03 3.786043496802449226e-03 0.000000000000000000e+00
 -8.061897009611129761e-03 3.770458512008190155e-03 0.000000000000000000e+00
 -8.042261935770511627e-03 3.753570141270756721e-03 0.000000000000000000e+00
 -8.021160960197448730e-03 3.735420759767293930e-03 0.000000000000000000e+00
 -7.998685352504253387e-03 3.716089529916644096e-03 0.000000000000000000e+00
 -7.974973879754543304e-03 3.695694264024496078e-03 0.000000000000000000e+00
 -7.950206287205219269e-03 3.674391424283385277e-03 0.000000000000000000e+00
 -7.924605160951614380e-03 3.652371931821107864e-03 0.000000000000000000e+00
 -7.898429408669471741e-03 3.629856975749135017e-03 0.000000000000000000e+00
 -7.871958427131175995e-03 3.607088932767510414e-03 0.000000000000000000e+00
 -7.845487445592880249e-03 3.584320656955242157e-03 0.000000000000000000e+00
 -7.819310761988162994e-03 3.561805933713912964e-03 0.000000000000000000e+00
 -7.793710101395845413e-03 3.539786441251635551e-03 0.000000000000000000e+00
 -7.768942508846521378e-03 3.518483601510524750e-03 0.000000000000000000e+00
 -7.745230570435523987e-03 3.498088335618376732e-03 0.000000000000000000e+00
 -7.722755428403615952e-03 3.478757105767726898e-03 0.000000000000000000e+00
 -7.701654452830553055e-03 3.460607724264264107e-03 0.000000000000000000e+00
 -7.682019378989934921e-03 3.443719353526830673e-03 0.000000000000000000e+00
 -7.663900032639503479e-03 3.428134368732571602e-03 0.000000000000000000e+00
 -7.647306658327579498e-03 3.413862315937876701e-03 0.000000000000000000e+00
 -7.632217369973659515e-03 3.400883870199322701e-03 0.000000000000000000e+00
 -7.618583738803863525e-03 3.389157354831695557e-03 0.000000000000000000e+00
 -7.606335915625095367e-03 3.378622466698288918e-03 0.000000000000000000e+00
 -7.595390081405639648e-03 3.369207726791501045e-03 0.000000000000000000e+00
 -7.585652638226747513e-03 3.360832808539271355e-03 0.000000000000000000e+00
 -7.577026728540658951e-03 3.353413427248597145e-03 0.000000000000000000e+00
 -8.135760203003883362e-03 3.964581526815891266e-03 0.000000000000000000e+00
 -8.127150125801563263e-03 3.956920001655817032e-03 0.000000000000000000e+00
 -8.117429912090301514e-03 3.948271274566650391e-03 0.000000000000000000e+00
 -8.106503635644912720e-03 3.938549198210239410e-03 0.000000000000000000e+00
 -8.094277232885360718e-03 3.927670884877443314e-03 0.000000000000000000e+00
 -8.080666884779930115e-03 3.915561363101005554e-03 0.000000000000000000e+00
 -8.065604604780673981e-03 3.902159398421645164e-03 0.000000000000000000e+00
 -8.049041032791137695e-03 3.887421451508998871e-03 0.000000000000000000e+00
 -8.030953817069530487e-03 3.871327731758356094e-03 0.000000000000000000e+00
 -8.011353202164173126e-03 3.853888018056750298e-03 0.000000000000000000e+00
 -7.990289479494094849e-03 3.835146082565188408e-03 0.000000000000000000e+00
 -7.967853918671607971e-03 3.815183881670236588e-03 0.000000000000000000e+00
 -7.944183424115180969e-03 3.794122952967882156e-03 0.000000000000000000e+00
 -7.919460535049438477e-03 3.772124648094177246e-03 0.000000000000000000e+00
 -7.893905043601989746e-03 3.749386407434940338e-03 0.000000000000000000e+00
 -7.867774926126003265e-03 3.726136637851595879e-03 0.000000000000000000e+00
 -7.841350510716438293e-03 3.702625166624784470e-03 0.000000000000000000e+00
 -7.814926095306873322e-03 3.679113928228616714e-03 0.000000000000000000e+00
 -7.788795977830886841e-03 3.655864158645272255e-03 0.000000000000000000e+00
 -7.763240952044725418e-03 3.633125917986035347e-03 0.000000000000000000e+00
 -7.738517131656408310e-03 3.611127613112330437e-03 0.000000000000000000e+00
 -7.714847102761268616e-03 3.590066684409976006e-03 0.000000000000000000e+00
 -7.692411541938781738e-03 3.570104483515024185e-03 0.000000000000000000e+00
 -7.671347819268703461e-03 3.551362548023462296e-03 0.000000000000000000e+00
 -7.651747670024633408e-03 3.533922834321856499e-03 0.000000000000000000e+00
 -7.633659988641738892e-03 3.517829114571213722e-03 0.000000000000000000e+00
 -7.617095950990915298e-03 3.503091167658567429e-03 0.000000000000000000e+00
 -7.602033670991659164e-03 3.489689202979207039e-03 0.000000000000000000e+00
 -7.588423788547515869e-03 3.477579681202769279e-03 0.000000000000000000e+00
 -7.576197851449251175e-03 3.466701135039329529e-03 0.000000000000000000e+00
 -7.565271109342575073e-03 3.456979058682918549e-03 0.000000000000000000e+00
 -7.555551361292600632e-03 3.448330564424395561e-03 0.000000000000000000e+00
 -7.546940352767705917e-03 3.440669039264321327e-03 0.000000000000000000e+00
 -8.103859610855579376e-03 4.068396985530853271e-03 0.000000000000000000e+00
 -8.095263503491878510e-03 4.060490988194942474e-03 0.000000000000000000e+00
 -8.085560053586959839e-03 4.051566123962402344e-03 0.000000000000000000e+00
 -8.074652403593063354e-03 4.041533451527357101e-03 0.000000000000000000e+00
 -8.062447421252727509e-03 4.030307289212942123e-03 0.000000000000000000e+00
 -8.048861287534236908e-03 4.017810802906751633e-03 0.000000000000000000e+00
 -8.033825084567070007e-03 4.003980197012424469e-03 0.000000000000000000e+00
 -8.017289452254772186e-03 3.988771233707666397e-03 0.000000000000000000e+00
 -7.999232970178127289e-03 3.972163423895835876e-03 0.000000000000000000e+00
 -7.979666814208030701e-03 3.954166546463966370e-03 0.000000000000000000e+00
 -7.958639413118362427e-03 3.934825770556926727e-03 0.000000000000000000e+00
 -7.936242967844009399e-03 3.914225846529006958e-03 0.000000000000000000e+00
 -7.912613451480865479e-03 3.892491804435849190e-03 0.000000000000000000e+00
 -7.887932471930980682e-03 3.869790583848953247e-03 0.000000000000000000e+00
 -7.862421683967113495e-03 3.846325678750872612e-03 0.000000000000000000e+00
 -7.836336269974708557e-03 3.822332946583628654e-03 0.000000000000000000e+00
 -7.809957489371299744e-03 3.798070363700389862e-03 0.000000000000000000e+00
 -7.783579174429178238e-03 3.773807780817151070e-03 0.000000000000000000e+00
 -7.757494226098060608e-03 3.749815048649907112e-03 0.000000000000000000e+00
 -7.731982972472906113e-03 3.726350143551826477e-03 0.000000000000000000e+00
 -7.707301992923021317e-03 3.703648922964930534e-03 0.000000000000000000e+00
 -7.683672476559877396e-03 3.681915113702416420e-03 0.000000000000000000e+00
 -7.661276031285524368e-03 3.661314956843852997e-03 0.000000000000000000e+00
 -7.640248630195856094e-03 3.641974180936813354e-03 0.000000000000000000e+00
 -7.620682008564472198e-03 3.623977070674300194e-03 0.000000000000000000e+00
 -7.602625992149114609e-03 3.607369260862469673e-03 0.000000000000000000e+00
 -7.586090825498104095e-03 3.592160297557711601e-03 0.000000000000000000e+00
 -7.571054156869649887e-03 3.578330157324671745e-03 0.000000000000000000e+00
[...]
<CellData>
 <DataArray Name="pos.x" type="Float32" NumberOfComponents="1" format="ascii">
 -8.177738056929766824e-03
 -8.168548578444904257e-03
 -8.158198163254665181e-03
 -8.146591281890325220e-03
 -8.133639369146867387e-03
 -8.119265731158871804e-03
 -8.103411174098226755e-03
 -8.086040129494898379e-03
 -8.067146912526758015e-03
 -8.046761608530980311e-03
 -8.024954965268024307e-03
 -8.001841606456344333e-03
 -7.977580908700808784e-03
 -7.952375023213685556e-03
 -7.926463780240486715e-03
 -7.900116564930444868e-03
 -7.873621646379920860e-03
 -7.847273804456234361e-03
 -7.821361355832907175e-03
 -7.796153774007420767e-03
 -7.771891006261201149e-03
 -7.748775334685144463e-03
 -7.726966265891189317e-03
 -7.706578540491631005e-03
 -7.687683001739442634e-03
 -7.670309805101696403e-03
 -7.654453310415378596e-03
 -7.640077971092485397e-03
 -7.627124596736544609e-03
 -7.615516483380071339e-03
 -7.605165046843768983e-03
 -7.595974733834272991e-03
 -8.147003465144870421e-03
 -8.137830399040315091e-03
 -8.127498469597295438e-03
 -8.115912317952890878e-03
 -8.102983537066534708e-03
 -8.088635570031780728e-03
 -8.072809328739251333e-03
 -8.055469308241781923e-03
 -8.036609833886137338e-03
 -8.016260937300102862e-03
 -7.994493239929203326e-03
 -7.971421160826568444e-03
 -7.947203792017642349e-03
 -7.922042923736482070e-03
 -7.896177957960825999e-03
 -7.869877798773254954e-03
 -7.843430200455411144e-03
 -7.817129416409024367e-03
 -7.791263248355858109e-03
 -7.766100688472469746e-03
 -7.741881255431802382e-03
 -7.718806869975904615e-03
 -7.697036753762485570e-03
 -7.676685442406288619e-03
 -7.657823652573388790e-03
 -7.640481485833757087e-03
 -7.624653312067012322e-03
 -7.610303648156688597e-03
 -7.597373409423211627e-03
 -7.585786028893909579e-03
 -7.575453080621527037e-03
 -7.566279181982781682e-03
 -8.115495043899651623e-03
 -8.106338002634617609e-03
 -8.096024122425620265e-03
 -8.084458210975210488e-03
 -8.071552015665320670e-03
 -8.057229113323788675e-03
 -8.041430519051585152e-03
 -8.024120789935520678e-03
 -8.005294261252772492e-03
 -7.984980912207588141e-03
 -7.963251240929693914e-03
 -7.940219466664828404e-03
 -7.916044403604480251e-03
 -7.890927489560269764e-03
 -7.865107708381814666e-03
 -7.838853494464406713e-03
 -7.812452099444838760e-03
 -7.786197262690786568e-03
 -7.760376283122623689e-03
 -7.735257682937939430e-03
 -7.711080562291403040e-03
 -7.688046489074334446e-03
 -7.666314406679843908e-03
 -7.645998650534099883e-03
 -7.627169813678306640e-03
 -7.609857945031208055e-03
 -7.594057424265976061e-03
 -7.579732830233948046e-03
 -7.566825181466623092e-03
 -7.555258044766547700e-03
 -7.544943148676004803e-03
 -7.535785277225088077e-03
 -8.083215008957304881e-03
 -8.074073588957165343e-03
 -8.063777303402692997e-03
 -8.052231122364913313e-03
 -8.039346943757815986e-03
 -8.025048474761983103e-03
 -8.009276831098182531e-03
 -7.991996630326727788e-03
 -7.973202217410962911e-03
 -7.952923520466953153e-03
 -7.931230917431456376e-03
 -7.908238432802552204e-03
 -7.884104609956889970e-03
 -7.859030543197313007e-03
 -7.833254808796964730e-03
 -7.807045383315358057e-03
 -7.780689028418398198e-03
 -7.754478982385036578e-03
 -7.728702053986124219e-03
 -7.703626307254104848e-03
 -7.679490434335309659e-03
 -7.656495659119427581e-03
 -7.634800653708560120e-03
 -7.614519558345856677e-03
 -7.595722845532211151e-03
 -7.578440512840957724e-03
 -7.562666949477183514e-03
 -7.548366794688884072e-03
 -7.535481167623818595e-03
 -7.523933765482525467e-03
 -7.513636467419921965e-03
 -7.504494219927522816e-03
 -8.050165516283994474e-03
 -8.041039300072366086e-03
 -8.030760138932547393e-03
 -8.019233160963508758e-03
 -8.006370410584801034e-03
 -7.992095721845582715e-03
 -7.976350308394513158e-03
 -7.959098846649203390e-03
 -7.940335691015359271e-03
 -7.920090719892537365e-03
 -7.898434194261266111e-03
 -7.875479949095692128e-03
 -7.851386264231659251e-03
 -7.826353899665643502e-03
 -7.800621035018146139e-03
 -7.774455201271984750e-03
 -7.748142683226340484e-03
 -7.721976231467462572e-03
 -7.696242177702193078e-03
 -7.671208140021048248e-03
 -7.647112413435631396e-03
 -7.624155886990163257e-03
 -7.602496968710230341e-03
 -7.582249608836287048e-03
 -7.563484162524114485e-03
 -7.546230577347839800e-03
 -7.530483251777099311e-03
 -7.516206883836200510e-03
 -7.503342690593994835e-03
 -7.491814496171156530e-03
 -7.481534326313074405e-03
 -7.472407285640682469e-03
 -8.016348662039178216e-03
 -8.007237220364171737e-03
 -7.996974700143526932e-03
 -7.985466383037299887e-03
 -7.972624455820843947e-03
 -7.958372875837763441e-03
 -7.942652951895928098e-03
 -7.925429417613918601e-03
 -7.906696636576077825e-03
 -7.886484438887255560e-03
 -7.864862971891987270e-03
 -7.841945886417444125e-03
 -7.817891206225946465e-03
 -7.792899366475874653e-03
 -7.767208161364475873e-03
 -7.741084688897958282e-03
 -7.714814770486431994e-03
 -7.688690682791490642e-03
 -7.662998293916541137e-03
 -7.638004788577286257e-03
 -7.613948075830070245e-03
 -7.591028719293340700e-03
 -7.569404870331457140e-03
 -7.549190294514942709e-03
 -7.530455232934996947e-03
 -7.513229584559882879e-03
 -7.497507756844472120e-03
 -7.483254504922897711e-03
 -7.470411141018828277e-03
 -7.458901612592178793e-03
 -7.448638087844648703e-03
 -7.439525825070940172e-03
 -7.981766482569849913e-03
 -7.972669376538602318e-03
 -7.962423002884078116e-03
 -7.950932792251773698e-03
 -7.938111069556292448e-03
 -7.923881911752441581e-03
 -7.908186719990819777e-03
 -7.890990283389425278e-03
 -7.872286974452564687e-03
 -7.852106576434550456e-03
 -7.830519126438390334e-03
 -7.807638096642426258e-03
 -7.783621262368553215e-03
 -7.758668743621597273e-03
 -7.733017960648285762e-03
 -7.706935591364389576e-03
 -7.680707007568435621e-03
 -7.654624026078526121e-03
 -7.628972065153243401e-03
 -7.604017888984522522e-03
 -7.579999032107835946e-03
 -7.557115742345135549e-03
 -7.535525921988052260e-03
 -7.515343157386769266e-03
 -7.496637578927532221e-03
 -7.479439038393505441e-03
 -7.463741951943821812e-03
 -7.449511130115311561e-03
 -7.436687977461495409e-03
 -7.425196561117940533e-03
 -7.414949187520251603e-03
 -7.405851264071455428e-03
 -7.946420954387951527e-03
 -7.937337737605758628e-03
 -7.927107007707682659e-03
 -7.915634339685980250e-03
 -7.902832192281912874e-03
 -7.888624758347615937e-03
 -7.872953528487158792e-03
 -7.855783345599581802e-03
 -7.837108590838635577e-03
 -7.816959002080105245e-03
 -7.795404509641113734e-03
 -7.772558412634896462e-03
 -7.748578245712126750e-03
 -7.723663823563753188e-03
 -7.698052204162742634e-03
 -7.672009658435170569e-03
 -7.645821122584218511e-03
 -7.619777967901668857e-03
 -7.594165176798410057e-03
 -7.569249106015089185e-03
 -7.545266927195547896e-03
 -7.522418582162681243e-03
 -7.500861731853540604e-03
 -7.480709788942369216e-03
 -7.462032776529988268e-03
 -7.444860500659471539e-03
 -7.429187385908919694e-03
 -7.414978296487746701e-03
 -7.402174726396129958e-03
 -7.390700858728033174e-03
 -7.380469133845498665e-03
 -7.371385103635556997e-03
 -7.910313994179565475e-03
 -7.901244214869601254e-03
 -7.891028619865146643e-03
 -7.879572923804253198e-03
 -7.866789714896170807e-03
 -7.852603298108228741e-03
 -7.836955250603299880e-03
 -7.819810467310657140e-03
 -7.801163337754874263e-03
 -7.781043555930525213e-03
 -7.759520948857377871e-03
 -7.736708648239895049e-03
 -7.712763955914151738e-03
 -7.687886391220827113e-03
 -7.662312661668804065e-03
 -7.636308644456871186e-03
 -7.610158854371390155e-03
 -7.584154231672538861e-03
 -7.558579337088811023e-03
 -7.533700133136853050e-03
 -7.509753440343512609e-03
 -7.486938904447146791e-03
 -7.465413952843003020e-03
 -7.445291830143100677e-03
 -7.426642455623144040e-03
 -7.409495591051046964e-03
 -7.393845669135962369e-03
 -7.379657606004018204e-03
 -7.366872982193552188e-03
 -7.355416092982835011e-03
 -7.345199508317780401e-03
 -7.336128919870882510e-03
 -7.873447458777348140e-03
 -7.864390661927662604e-03
 -7.854189689300995758e-03
 -7.842750390452719531e-03
 -7.829985478671296420e-03
 -7.815819367246717303e-03
 -7.800193716961006593e-03
 -7.783073473016940448e-03
 -7.764453033038334374e-03
 -7.744362048635146552e-03
 -7.722870247047973827e-03
 -7.700090598269137936e-03
 -7.676180179231516243e-03
 -7.651338223956069551e-03
 -7.625801101384526402e-03
 -7.599834308342256865e-03
 -7.573721952482701490e-03
 -7.547754557629556514e-03
 -7.522216277096443852e-03
 -7.497372692502364891e-03
 -7.473460285112774881e-03
 -7.450678414571368195e-03
 -7.429184282599848171e-03
 -7.409090971407451126e-03
 -7.390468299926276387e-03
 -7.373345987128662564e-03
 -7.357718473563321440e-03
 -7.343550725506792567e-03
 -7.330784407104925203e-03
 -7.319343922022642120e-03
 -7.309141965406273055e-03
 -7.300084363992415289e-03
 -7.835823145167767137e-03
 -7.826778874650991771e-03
 -7.816592010636072563e-03
 -7.805168532852610475e-03
 -7.792421275267070319e-03
 -7.778274755686837710e-03
 -7.762670715570321039e-03
 -7.745574148636753808e-03
 -7.726979460330057198e-03
 -7.706916261377700153e-03
 -7.685454182771009682e-03
 -7.662706038492492211e-03
 -7.638828688504890538e-03
 -7.614021091565950465e-03
 -7.588519289971386479e-03
 -7.562588413562986236e-03
 -7.536512177173518463e-03
 -7.510580702826091803e-03
 -7.485077750719053465e-03
 -7.460268534933448166e-03
 -7.436389209361783832e-03
 -7.413638857565351369e-03
 -7.392174463486182213e-03
 -7.372108952597031251e-03
 -7.353512046986191396e-03
 -7.336413424308561339e-03
 -7.320807532663174341e-03
 -7.306659386705228673e-03
 -7.293910731251689213e-03
 -7.282486074546305234e-03
 -7.272298232544553015e-03
 -7.263253162306678411e-03
 -7.797442790472741865e-03
 -7.788410591181161267e-03
 -7.778237323165254451e-03
 -7.766829091587991798e-03
 -7.754098846711098870e-03
 -7.739971207053924357e-03
 -7.724387991826862920e-03
 -7.707314241500488709e-03
 -7.688744369066912408e-03
 -7.668707945870495077e-03
 -7.647274510165480953e-03
 -7.624556725626032566e-03
 -7.600711243151103864e-03
 -7.575936756267847953e-03
 -7.550468992526172644e-03
 -7.524572728132308992e-03
 -7.498531299390492552e-03
 -7.472634441115946421e-03
 -7.447165534664804132e-03
 -7.422389439911845389e-03
 -7.398541995233765857e-03
 -7.375822018107553411e-03
 -7.354386282565367888e-03
 -7.334347563006940289e-03
 -7.315775488161447085e-03
 -7.298699695848531212e-03
 -7.283114641424048678e-03
 -7.268985386162766203e-03
 -7.256253752610677607e-03
 -7.244844349802901338e-03
 -7.234670110114775274e-03
 -7.225637116203930191e-03
 -7.758308071945793291e-03
 -7.749287491924749735e-03
 -7.739127310844736395e-03
 -7.727733754600515405e-03
 -7.715019885389425014e-03
 -7.700910418672844704e-03
 -7.685347248498250114e-03
 -7.668295460342642797e-03
 -7.649749474472750110e-03
 -7.629738824337646379e-03
 -7.608332958948720547e-03
 -7.585644397320194868e-03
 -7.561829589150958000e-03
 -7.537086972694438149e-03
 -7.511651972564410348e-03
 -7.485789024599923298e-03
 -7.459781100757056742e-03
 -7.433917563143832737e-03
 -7.408481428444664910e-03
 -7.383737215563818124e-03
 -7.359920459147966873e-03
 -7.337229720509130457e-03
 -7.315821571595604311e-03
 -7.295808641351230785e-03
 -7.277260468614302549e-03
 -7.260206652835901608e-03
 -7.244641656345886943e-03
 -7.230530585279689067e-03
 -7.217815337007460821e-03
 -7.206420617575783755e-03
 -7.196259471435233722e-03
 -7.187238102140820414e-03
 -7.718420606964235091e-03
 -7.709411199545282423e-03
 -7.699263602288765329e-03
 -7.687884157179090787e-03
 -7.675186034043309478e-03
 -7.661094041551927067e-03
 -7.645550145716117213e-03
 -7.628519475293121972e-03
 -7.609996457549801814e-03
 -7.590010589511784339e-03
 -7.568631234401158349e-03
 -7.545970772156612022e-03
 -7.522185459039648983e-03
 -7.497473487875791140e-03
 -7.472069992016511925e-03
 -7.446239080038732049e-03
 -7.420263373568219620e-03
 -7.394431876333704308e-03
 -7.369027254356595030e-03
 -7.344313698653615746e-03
 -7.320526451782618203e-03
 -7.297863828706206875e-03
 -7.276482207013375975e-03
 -7.256494075752475091e-03
 -7.237968887295395150e-03
 -7.220936204180092820e-03
 -7.205390495422917853e-03
 -7.191296910290316882e-03
 -7.178597418097730151e-03
 -7.167216818179016416e-03
 -7.157068262751616408e-03
 -7.148058071634337887e-03
 -7.677781953020522583e-03
 -7.668783278948658640e-03
 -7.658647770758549196e-03
 -7.647281881956641963e-03
 -7.634598885759117347e-03
 -7.620523680382844389e-03
 -7.604998300972659088e-03
 -7.587987917866838988e-03
 -7.569486965068068264e-03
 -7.549524904625266354e-03
 -7.528171017360978275e-03
 -7.505537549632749529e-03
 -7.481780571899360709e-03
 -7.457098041237012614e-03
 -7.431724811214496414e-03
 -7.405924676032838577e-03
 -7.379979920774651023e-03
 -7.354179204880115228e-03
 -7.328804857478551232e-03
 -7.304120754568876016e-03
 -7.280361858070840894e-03
 -7.257726246245239411e-03
 -7.236370109927355194e-03
 -7.216405803731804590e-03
 -7.197902696938607466e-03
 -7.180890316596960990e-03
 -7.165363138135127583e-03
 -7.151286352248736010e-03
 -7.138601997362154297e-03
 -7.127234962436954438e-03
 -7.117098503225504323e-03
 -7.108099051244694787e-03
 -7.636393607717224634e-03
 -7.627405237285975019e-03
 -7.617281334159915068e-03
 -7.605928458896088311e-03
 -7.593259983961220434e-03
 -7.579200893528688018e-03
 -7.563693289108673438e-03
 -7.546702380961450504e-03
 -7.528222609562556893e-03
 -7.508283403399715686e-03
 -7.486953964213644876e-03
 -7.464346410156663149e-03
 -7.440616633349344047e-03
 -7.415962364587089586e-03
 -7.390618188883672432e-03
 -7.364847598673347762e-03
 -7.338932555979762497e-03
 -7.313161389737038963e-03
 -7.287816105659311941e-03
 -7.263160277313557810e-03
 -7.239428597188352597e-03
 -7.216818916277159025e-03
 -7.195487246105271989e-03
 -7.175545812200464189e-03
 -7.157063904045868515e-03
 -7.140071014602831535e-03
 -7.124561625441162144e-03
 -7.110500967015560142e-03
 -7.097831144097521867e-03
 -7.086477131683479105e-03
 -7.076352284924366381e-03
 -7.067363142573984854e-03
 -7.594257008762472609e-03
 -7.585278523943603766e-03
 -7.575165755034867117e-03
 -7.563825365292482610e-03
 -7.551170822407781910e-03
 -7.537127193019146909e-03
 -7.521636642309357558e-03
 -7.504664418845281675e-03
 -7.486204969322709547e-03
 -7.466287690040709739e-03
 -7.444981706889387124e-03
 -7.422399015039026111e-03
 -7.398695335537337769e-03
 -7.374068182108932216e-03
 -7.348751882135426926e-03
 -7.323009638546061628e-03
 -7.297123103425465218e-03
 -7.271380288609995309e-03
 -7.246062889506461706e-03
 -7.221434189500079356e-03
 -7.197728622542589987e-03
 -7.175143821548508188e-03
 -7.153835625968854757e-03
 -7.133916137448086461e-03
 -7.115454568882502960e-03
 -7.098480380505730117e-03
 -7.082988059765591045e-03
 -7.068942875257458458e-03
 -7.056286995402842772e-03
 -7.044945477748934537e-03
 -7.034831772815170435e-03
 -7.025852522250451183e-03
 -7.551373533960448886e-03
 -7.542404530537262508e-03
 -7.532302440552400384e-03
 -7.520974025764469266e-03
 -7.508332845183884191e-03
 -7.494304044543504545e-03
 -7.478829850098255017e-03
 -7.461875547156004290e-03
 -7.443435588386361317e-03
 -7.423539339232577625e-03
 -7.402255852851301679e-03
 -7.379697006486907532e-03
 -7.356018357136125119e-03
 -7.331417210356524529e-03
 -7.306127646458585381e-03
 -7.280412590726389674e-03
 -7.254553397988068239e-03
 -7.228837775948511284e-03
 -7.203547122384004221e-03
 -7.178944442337801407e-03
 -7.155263921768427460e-03
 -7.132702984391692605e-03
 -7.111417304582956164e-03
 -7.091518865137332213e-03
 -7.073076805467335380e-03
 -7.056120554395542421e-03
 -7.040644604994482011e-03
 -7.026614262432185828e-03
 -7.013971756175878779e-03
 -7.002642222951376873e-03
 -6.992539204754643668e-03
 -6.983569441924747899e-03
 </DataArray>
 <DataArray Name="pos.y" type="Float32" NumberOfComponents="1" format="ascii">
 3.805251265277679543e-03
 3.797481866784805510e-03
 3.788730934909805524e-03
 3.778917702664441516e-03
 3.767967291112105013e-03
 3.755814858140750414e-03
 3.742410357336018682e-03
 3.727723716739763521e-03
 3.711750130024200813e-03
 3.694515033340796048e-03
 3.676078241568797676e-03
 3.656536665250753517e-03
 3.636025052006967937e-03
 3.614714313964516486e-03
 3.592807219622541452e-03
 3.570531525166323241e-03
 3.548130952531783951e-03
 3.525854728294672107e-03
 3.503946614615035485e-03
 3.482634442375379894e-03
 3.462121079022942999e-03
 3.442577547339828459e-03
 3.424138704862128915e-03
 3.406901560962644765e-03
 3.390926011254882279e-03
 3.376237551185554044e-03
 3.362831412183022242e-03
 3.350677540788618135e-03
 3.339725893492723370e-03
 3.329911619637593041e-03
 3.321159824249654384e-03
 3.313389720192171008e-03
 3.908949578536918129e-03
 3.900923797857678947e-03
 3.891884094147622826e-03
 3.881747035180535630e-03
 3.870435271080180199e-03
 3.857881819999396580e-03
 3.844034984040217012e-03
 3.828863698900058544e-03
 3.812362999659680684e-03
 3.794559161858996558e-03
 3.775513974241709748e-03
 3.755327545344785099e-03
 3.734139069378869438e-03
 3.712125098453566193e-03
 3.689495092279089852e-03
 3.666484322808953849e-03
 3.643344554582192852e-03
 3.620333238405099366e-03
 3.597702180322747984e-03
 3.575686729366032209e-03
 3.554496447344370619e-03
 3.534308000552220056e-03
 3.515260696619572009e-03
 3.497454746066597925e-03
 3.480952020948582110e-03
 3.465778857998819650e-03
 3.451930331262582658e-03
 3.439375395535443532e-03
 3.428062355923314642e-03
 3.417924221769178678e-03
 3.408883626655814618e-03
 3.400857117567996322e-03
 4.012646086906422951e-03
 4.004361128011295692e-03
 3.995029503186343055e-03
 3.984565085894843130e-03
 3.972888028366822720e-03
 3.959929185686917284e-03
 3.945635190457937903e-03
 3.929973975217435252e-03
 3.912940414729180853e-03
 3.894561633089787568e-03
 3.874901414451595045e-03
 3.854063100246305201e-03
 3.832190379794131983e-03
 3.809465506725165460e-03
 3.786104704959449528e-03
 3.762350844203811700e-03
 3.738463819324217008e-03
 3.714709395049114581e-03
 3.691347509023535332e-03
 3.668621110395468322e-03
 3.646746528314660438e-03
 3.625906134100128925e-03
 3.606243733971135467e-03
 3.587862774474531637e-03
 3.570827125635077804e-03
 3.555163974624257241e-03
 3.540868236374631640e-03
 3.527907863114638186e-03
 3.516229490551689603e-03
 3.505763964697446340e-03
 3.496431420740547802e-03
 3.488145710722154094e-03
 4.116338965750053480e-03
 4.107792022904902668e-03
 4.098165316753013543e-03
 4.087369997271264252e-03
 4.075323691755442478e-03
 4.061955068797216094e-03
 4.047209073430427066e-03
 4.031052624174847471e-03
 4.013480433749358305e-03
 3.994520484008202109e-03
 3.974238576130757414e-03
 3.952741319468387575e-03
 3.930176947138852225e-03
 3.906733476048264951e-03
 3.882633967578476460e-03
 3.858128971461717224e-03
 3.833486600919890335e-03
 3.808981024606882849e-03
 3.784880399785348938e-03
 3.761435357972897891e-03
 3.738869068888741199e-03
 3.717369670599051431e-03
 3.697085516575313036e-03
 3.678123324387656649e-03
 3.660548983629061028e-03
 3.644390541095232378e-03
 3.629642750867992113e-03
 3.616272551746331151e-03
 3.604224891967996915e-03
 3.593428430792936553e-03
 3.583800777977609684e-03
 3.575253061451964202e-03
 4.220025986070461907e-03
 4.211214246602868784e-03
 4.201289291090730925e-03
 4.190159516784977382e-03
 4.177739998931699270e-03
 4.163957196155103693e-03
 4.148754347799279117e-03
 4.132097347482877048e-03
 4.113980744151304533e-03
 4.094433386635580943e-03
 4.073523114821066618e-03
 4.051359841086617057e-03
 4.028096391164279026e-03
 4.003926607139033159e-03
 3.979080461293716189e-03
 3.953816265863498505e-03
 3.928410440671447484e-03
 3.903145648524305664e-03
 3.878298354536144008e-03
 3.854126955049541874e-03
 3.830861533760662047e-03
 3.808696057355889873e-03
 3.787783475340004632e-03
 3.768233811386759169e-03
 3.750114996310145634e-03
 3.733455945733371931e-03
 3.718251251146687756e-03
 3.704466827031137593e-03
 3.692045916034216932e-03
 3.680914967191597619e-03
 3.670989037719550509e-03
 3.662176502200816149e-03
 4.323704514519581717e-03
 4.314625161579773750e-03
 4.304398783972083510e-03
 4.292930996932565503e-03