<VTKFile type="UnstructuredGrid" byte_order="BigEndian">
<UnstructuredGrid><Piece NumberOfPoints="2546" NumberOfCells="2394">
<Points>
 <DataArray type="Float32" NumberOfComponents="3" format="ascii">
 -1.108581852167844772e-02 2.718120813369750977e-03 0.000000000000000000e+00
 -1.106089632958173752e-02 2.709768014028668404e-03 0.000000000000000000e+00
 -1.103597786277532578e-02 2.701416146010160446e-03 0.000000000000000000e+00
 -1.101106591522693634e-02 2.693066373467445374e-03 0.000000000000000000e+00
 -1.098616234958171844e-02 2.684719860553741455e-03 0.000000000000000000e+00
 -1.096127089112997055e-02 2.676377305760979652e-03 0.000000000000000000e+00
 -1.093639526516199112e-02 2.668039873242378235e-03 0.000000000000000000e+00
 -1.091153826564550400e-02 2.659708494320511818e-03 0.000000000000000000e+00
 -1.088670268654823303e-02 2.651384565979242325e-03 0.000000000000000000e+00
 -1.086189132183790207e-02 2.643068553879857063e-03 0.000000000000000000e+00
 -1.083710696548223495e-02 2.634761855006217957e-03 0.000000000000000000e+00
 -1.081235334277153015e-02 2.626465400680899620e-03 0.000000000000000000e+00
 -1.078763324767351151e-02 2.618180122226476669e-03 0.000000000000000000e+00
 -1.076294947415590286e-02 2.609906950965523720e-03 0.000000000000000000e+00
 -1.073830481618642807e-02 2.601647051051259041e-03 0.000000000000000000e+00
 -1.071370299905538559e-02 2.593401353806257248e-03 0.000000000000000000e+00
 -1.068914588540792465e-02 2.585170557722449303e-03 0.000000000000000000e+00
 -1.066463626921176910e-02 2.576956059783697128e-03 0.000000000000000000e+00
 -1.064017880707979202e-02 2.568758791312575340e-03 0.000000000000000000e+00
 -1.061577443033456802e-02 2.560579450801014900e-03 0.000000000000000000e+00
 -1.059142686426639557e-02 2.552418969571590424e-03 0.000000000000000000e+00
 -1.056713890284299850e-02 2.544278278946876526e-03 0.000000000000000000e+00
 -1.054291240870952606e-02 2.536158775910735130e-03 0.000000000000000000e+00
 -1.051875110715627670e-02 2.528060693293809891e-03 0.000000000000000000e+00
 -1.049465779215097427e-02 2.519985428079962730e-03 0.000000000000000000e+00
 -1.047063432633876801e-02 2.511933678761124611e-03 0.000000000000000000e+00
 -1.044668350368738174e-02 2.503906143829226494e-03 0.000000000000000000e+00
 -1.042280811816453934e-02 2.495904220268130302e-03 0.000000000000000000e+00
 -1.039901096373796463e-02 2.487928373739123344e-03 0.000000000000000000e+00
 -1.037529483437538147e-02 2.479979302734136581e-03 0.000000000000000000e+00
 -1.035166066139936447e-02 2.472058171406388283e-03 0.000000000000000000e+00
 -1.032811310142278671e-02 2.464165911078453064e-03 0.000000000000000000e+00
 -1.030465308576822281e-02 2.456302754580974579e-03 0.000000000000000000e+00
 -1.028128340840339661e-02 2.448470098897814751e-03 0.000000000000000000e+00
 -1.025800593197345734e-02 2.440668409690260887e-03 0.000000000000000000e+00
 -1.023482345044612885e-02 2.432898618280887604e-03 0.000000000000000000e+00
 -1.021173782646656036e-02 2.425161190330982208e-03 0.000000000000000000e+00
 -1.018875185400247574e-02 2.417457289993762970e-03 0.000000000000000000e+00
 -1.016586832702159882e-02 2.409787150099873543e-03 0.000000000000000000e+00
 -1.014308724552392960e-02 2.402151934802532196e-03 0.000000000000000000e+00
 -1.012041233479976654e-02 2.394552109763026237e-03 0.000000000000000000e+00
 -1.009784452617168427e-02 2.386988373473286629e-03 0.000000000000000000e+00
 -1.007538661360740662e-02 2.379461424425244331e-03 0.000000000000000000e+00
 -1.005304139107465744e-02 2.371971728280186653e-03 0.000000000000000000e+00
 -1.003080885857343674e-02 2.364520216360688210e-03 0.000000000000000000e+00
 -1.000869087874889374e-02 2.357107354328036308e-03 0.000000000000000000e+00
 -9.986691176891326904e-03 2.349733840674161911e-03 0.000000000000000000e+00
 -9.964809753000736237e-03 2.342399908229708672e-03 0.000000000000000000e+00
 -9.943049401044845581e-03 2.335106721147894859e-03 0.000000000000000000e+00
 -9.921411052346229553e-03 2.327854279428720474e-03 0.000000000000000000e+00
 -9.899896569550037384e-03 2.320643281564116478e-03 0.000000000000000000e+00
 -9.878506883978843689e-03 2.313474426046013832e-03 0.000000000000000000e+00
 -9.857244789600372314e-03 2.306348178535699844e-03 0.000000000000000000e+00
 -9.836111217737197876e-03 2.299264771863818169e-03 0.000000000000000000e+00
 -9.815107099711894989e-03 2.292224904522299767e-03 0.000000000000000000e+00
 -9.794233366847038269e-03 2.285229042172431946e-03 0.000000000000000000e+00
 -9.773492813110351562e-03 2.278277417644858360e-03 0.000000000000000000e+00
 -9.752885438501834869e-03 2.271370496600866318e-03 0.000000000000000000e+00
 -9.732413105666637421e-03 2.264508977532386780e-03 0.000000000000000000e+00
 -9.712075814604759216e-03 2.257692860439419746e-03 0.000000000000000000e+00
 -9.691876359283924103e-03 2.250922843813896179e-03 0.000000000000000000e+00
 -9.671815671026706696e-03 2.244198927655816078e-03 0.000000000000000000e+00
 -9.651893749833106995e-03 2.237521810457110405e-03 0.000000000000000000e+00
 -9.632111527025699615e-03 2.230891492217779160e-03 0.000000000000000000e+00
 -9.612469933927059174e-03 2.224308671429753304e-03 0.000000000000000000e+00
 -9.592970833182334900e-03 2.217773115262389183e-03 0.000000000000000000e+00
 -9.573614224791526794e-03 2.211285522207617760e-03 0.000000000000000000e+00
 -9.554401971399784088e-03 2.204846125096082687e-03 0.000000000000000000e+00
 -9.535333141684532166e-03 2.198454923927783966e-03 0.000000000000000000e+00
 -9.516408666968345642e-03 2.192112384364008904e-03 0.000000000000000000e+00
 -9.497630409896373749e-03 2.185818506404757500e-03 0.000000000000000000e+00
 -9.478998370468616486e-03 2.179573522880673409e-03 0.000000000000000000e+00
 -9.460512548685073853e-03 2.173377899453043938e-03 0.000000000000000000e+00
 -9.442173875868320465e-03 2.167231403291225433e-03 0.000000000000000000e+00
 -9.423982352018356323e-03 2.161134500056505203e-03 0.000000000000000000e+00
 -9.405939839780330658e-03 2.155087189748883247e-03 0.000000000000000000e+00
 -9.388045407831668854e-03 2.149089472368359566e-03 0.000000000000000000e+00
 -9.370299056172370911e-03 2.143141580745577812e-03 0.000000000000000000e+00
 -9.352701716125011444e-03 2.137243747711181641e-03 0.000000000000000000e+00
 -9.335254319012165070e-03 2.131395740434527397e-03 0.000000000000000000e+00
 -9.317955933511257172e-03 2.125598024576902390e-03 0.000000000000000000e+00
 -9.300806559622287750e-03 2.119850367307662964e-03 0.000000000000000000e+00
 -9.283807128667831421e-03 2.114152768626809120e-03 0.000000000000000000e+00
 -9.266957640647888184e-03 2.108505461364984512e-03 0.000000000000000000e+00
 -9.250258095562458038e-03 2.102908445522189140e-03 0.000000000000000000e+00
 -9.233708493411540985e-03 2.097361488267779350e-03 0.000000000000000000e+00
 -9.217308834195137024e-03 2.091864822432398796e-03 0.000000000000000000e+00
 -9.201058186590671539e-03 2.086418448016047478e-03 0.000000000000000000e+00
 -9.184957481920719147e-03 2.081021899357438087e-03 0.000000000000000000e+00
 -9.169006720185279846e-03 2.075675642117857933e-03 0.000000000000000000e+00
 -9.153204970061779022e-03 2.070379676297307014e-03 0.000000000000000000e+00
 -9.137552231550216675e-03 2.065133303403854370e-03 0.000000000000000000e+00
 -9.122048504650592804e-03 2.059936989098787308e-03 0.000000000000000000e+00
 -9.106692858040332794e-03 2.054790500551462173e-03 0.000000000000000000e+00
 -9.091486223042011261e-03 2.049693837761878967e-03 0.000000000000000000e+00
 -9.076427668333053589e-03 2.044646767899394035e-03 0.000000000000000000e+00
 -9.061516262590885162e-03 2.039649058133363724e-03 0.000000000000000000e+00
 -9.046752005815505981e-03 2.034700708463788033e-03 0.000000000000000000e+00
 -9.032135829329490662e-03 2.029801718890666962e-03 0.000000000000000000e+00
 -9.017664939165115356e-03 2.024951623752713203e-03 0.000000000000000000e+00
 -9.003340266644954681e-03 2.020150655880570412e-03 0.000000000000000000e+00
 -8.989160880446434021e-03 2.015398116782307625e-03 0.000000000000000000e+00
 -8.975126780569553375e-03 2.010694472119212151e-03 0.000000000000000000e+00
 -8.961237035691738129e-03 2.006039023399353027e-03 0.000000000000000000e+00
 -8.947491645812988281e-03 2.001432003453373909e-03 0.000000000000000000e+00
 -8.933888748288154602e-03 1.996872946619987488e-03 0.000000000000000000e+00
 -8.920428343117237091e-03 1.992361620068550110e-03 0.000000000000000000e+00
 -8.907110430300235748e-03 1.987897790968418121e-03 0.000000000000000000e+00
 -8.893934078514575958e-03 1.983481459319591522e-03 0.000000000000000000e+00
 -8.880898356437683105e-03 1.979112392291426659e-03 0.000000000000000000e+00
 -8.868002332746982574e-03 1.974790124222636223e-03 0.000000000000000000e+00
 -8.855245076119899750e-03 1.970514655113220215e-03 0.000000000000000000e+00
 -8.842627517879009247e-03 1.966285519301891327e-03 0.000000000000000000e+00
 -8.830146864056587219e-03 1.962102483958005905e-03 0.000000000000000000e+00
 -8.817804045975208282e-03 1.957965549081563950e-03 0.000000000000000000e+00
 -8.805596269667148590e-03 1.953874249011278152e-03 0.000000000000000000e+00
 -8.793525397777557373e-03 1.949828234501183033e-03 0.000000000000000000e+00
 -8.781588636338710785e-03 1.945827389135956764e-03 0.000000000000000000e+00
 -8.769785054028034210e-03 1.941871480084955692e-03 0.000000000000000000e+00
 -8.758115582168102264e-03 1.937960158102214336e-03 0.000000000000000000e+00
 -8.746577426791191101e-03 1.934093073941767216e-03 0.000000000000000000e+00
 -8.735170587897300720e-03 1.930269994772970676e-03 0.000000000000000000e+00
 -8.723894134163856506e-03 1.926490571349859238e-03 0.000000000000000000e+00
 -8.712748065590858459e-03 1.922754570841789246e-03 0.000000000000000000e+00
 -8.701729588210582733e-03 1.919061760418117046e-03 0.000000000000000000e+00
 -8.690839633345603943e-03 1.915411674417555332e-03 0.000000000000000000e+00
 -8.680075407028198242e-03 1.911804196424782276e-03 0.000000000000000000e+00
[...]
<CellData>
 <DataArray Name="pos.x" type="Float32" NumberOfComponents="1" format="ascii">
 -1.106398988075439280e-02
 -1.103907667084304961e-02
 -1.101416806717774206e-02
 -1.098926713868986042e-02
 -1.096437695046257113e-02
 -1.093950056220748847e-02
 -1.091464102674194470e-02
 -1.088980138846721950e-02
 -1.086498468186084324e-02
 -1.084019392997470112e-02
 -1.081543214296140643e-02
 -1.079070231658644553e-02
 -1.076600743078576228e-02
 -1.074135044821402166e-02
 -1.071673431283508629e-02
 -1.069216194851351637e-02
 -1.066763625763577673e-02
 -1.064316011975262669e-02
 -1.061873639025050567e-02
 -1.059436789902996195e-02
 -1.057005744924687830e-02
 -1.054580781603235533e-02
 -1.052162174528883769e-02
 -1.049750195247691094e-02
 -1.047345112147129130e-02
 -1.044947190340680433e-02
 -1.042556691559205079e-02
 -1.040173874044614255e-02
 -1.037798992445317092e-02
 -1.035432297718181203e-02
 -1.033074037031677522e-02
 -1.030724453673348591e-02
 -1.028383786962348140e-02
 -1.026052272163409732e-02
 -1.023730140406282213e-02
 -1.021417618608679544e-02
 -1.019114929403507584e-02
 -1.016822291068184350e-02
 -1.014539917460783626e-02
 -1.012268017957808700e-02
 -1.010006797396638921e-02
 -1.007756456023056572e-02
 -1.005517189440411317e-02
 -1.003289188565328546e-02
 -1.001072639585130070e-02
 -9.988677239217598480e-03
 -9.966746181960653428e-03
 -9.944934941999107950e-03
 -9.923245188690404256e-03
 -9.901678542618291140e-03
 -9.880236575405263941e-03
 -9.858920809565848570e-03
 -9.837732718404693447e-03
 -9.816673725938071526e-03
 -9.795745206862297924e-03
 -9.774948486546253257e-03
 -9.754284841076947890e-03
 -9.733755497311112614e-03
 -9.713361632992089517e-03
 -9.693104376871135991e-03
 -9.672984808876742419e-03
 -9.653003960314786303e-03
 -9.633162814083488790e-03
 -9.613462304942633346e-03
 -9.593903319788758821e-03
 -9.574486697965678417e-03
 -9.555213231606041538e-03
 -9.536083666000089165e-03
 -9.517098699973485301e-03
 -9.498258986306393203e-03
 -9.479565132177949702e-03
 -9.461017699602265393e-03
 -9.442617205935824320e-03
 -9.424364124354798339e-03
 -9.406258884383247865e-03
 -9.388301872437483306e-03
 -9.370493432369361372e-03
 -9.352833866043840441e-03
 -9.335323433933265594e-03
 -9.317962355699727431e-03
 -9.300750810840668903e-03
 -9.283688939294395745e-03
 -9.266776842089700927e-03
 -9.250014581998887431e-03
 -9.233402184203555116e-03
 -9.216939636962745083e-03
 -9.200626892295072842e-03
 -9.184463866666712703e-03
 -9.168450441693187097e-03
 -9.152586464831509103e-03
 -9.136871750104089487e-03
 -9.121306078788589400e-03
 -9.105889200156499705e-03
 -9.090620832182042671e-03
 -9.075500662255533632e-03
 -9.060528347932202131e-03
 -9.045703517632345397e-03
 -9.031025771382466399e-03
 -9.016494681525374227e-03
 -9.002109793470408627e-03
 -8.987870626390519549e-03
 -8.973776673959436151e-03
 -8.959827405060983088e-03
 -8.946022264522325573e-03
 -8.932360673806059859e-03
 -8.918842031726447600e-03
 -8.905465715164349177e-03
 -8.892231079756340861e-03
 -8.879137460586512126e-03
 -8.866184172882032519e-03
 -8.853370512701611364e-03
 -8.840695757589627293e-03
 -8.828159167268643734e-03
 -8.815759984295495205e-03
 -8.803497434706975683e-03
 -8.791370728673305462e-03
 -8.779379061149268290e-03
 -8.767521612478413814e-03
 -8.755797549041266503e-03
 -8.744206023854835669e-03
 -8.732746177185822870e-03
 -8.721417137134699835e-03
 -8.710218020241258796e-03
 -8.699147932042431905e-03
 -8.688205967648698208e-03
 -8.677391212308165416e-03
 -8.666702741937433452e-03
 -8.656139623687671147e-03
 -8.645700916437000158e-03
 -8.635385671343155309e-03
 -8.625192932330742399e-03
 -8.615121736595487620e-03
 -8.605171115093651624e-03
 -1.104474113100960275e-02
 -1.101984267034564376e-02
 -1.099494882527815229e-02
 -1.097006267093391524e-02
 -1.094518727858384381e-02
 -1.092032571409501905e-02
 -1.089548103640122258e-02
 -1.087065629597703392e-02
 -1.084585453332523666e-02
 -1.082107877745870639e-02
 -1.079633204442761313e-02
 -1.077161733581770767e-02
 -1.074693763730261327e-02
 -1.072229591719203734e-02
 -1.069769512499828268e-02
 -1.067313819003955222e-02
 -1.064862802004223029e-02
 -1.062416749978401485e-02
 -1.059975948975020420e-02
 -1.057540682482134564e-02
 -1.055111231298646798e-02
 -1.052687873408388215e-02
 -1.050270883856199017e-02
 -1.047860534629644659e-02
 -1.045457094540128487e-02
 -1.043060829111064174e-02
 -1.040672000465480557e-02
 -1.038290867221112156e-02
 -1.035917684385349001e-02
 -1.033552703256245681e-02
 -1.031196171325229720e-02
 -1.028848332186249083e-02
 -1.026509425444446441e-02
 -1.024179686633406271e-02
 -1.021859347132685752e-02
 -1.019548634090986297e-02
 -1.017247770352400910e-02
 -1.014956974387450084e-02
 -1.012676460227088585e-02
 -1.010406437402387378e-02
 -1.008147110885248242e-02
 -1.005898681036580637e-02
 -1.003661343556525899e-02
 -1.001435289438139947e-02
 -9.992207049272779779e-03
 -9.970177714839262642e-03
 -9.948266657494257703e-03
 -9.926475595167898180e-03
 -9.904806197045782842e-03
 -9.883260083356390849e-03
 -9.861838825183336099e-03
 -9.840543944331418824e-03
 -9.819376913210409522e-03
 -9.798339154777435320e-03
 -9.777432042493842609e-03
 -9.756656900334715471e-03
 -9.736015002818830880e-03
 -9.715507575090868986e-03
 -9.695135793012513853e-03
 -9.674900783308151148e-03
 -9.654803623735892792e-03
 -9.634845343280356786e-03
 -9.615026922383734104e-03
 -9.595349293214082767e-03
 -9.575813339944425767e-03
 -9.556419899073969812e-03
 -9.537169759768721750e-03
 -9.518063664228096354e-03
 -9.499102308085389385e-03
 -9.480286340818967761e-03
 -9.461616366193735875e-03
 -9.443092942731393102e-03
 -9.424716584187024793e-03
 -9.406487760055363967e-03
 -9.388406896099503809e-03
 -9.370474374886306190e-03
 -9.352690536356974768e-03
 -9.335055678386694131e-03
 -9.317570057404748335e-03
 -9.300233888971828206e-03
 -9.283047348417767727e-03
 -9.266010571477670613e-03
 -9.249123654924168436e-03
 -9.232386657243001754e-03
 -9.215799599279723281e-03
 -9.199362464942437839e-03
 -9.183075201861850764e-03
 -9.166937722096235239e-03
 -9.150949902838625277e-03
 -9.135111587109915818e-03
 -9.119422584477239468e-03
 -9.103882671772891427e-03
 -9.088491593808100538e-03
 -9.073249064103370426e-03
 -9.058154765609387205e-03
 -9.043208351432296954e-03
 -9.028409445575907161e-03
 -9.013757643651065452e-03
 -8.999252513620251484e-03
 -8.984893596516434211e-03
 -8.970680407178145341e-03
 -8.956612434963880098e-03
 -8.942689144479605556e-03
 -8.928909976300185292e-03
 -8.915274347684194745e-03
 -8.901781653276548412e-03
 -8.888431265825266769e-03
 -8.875222536888806302e-03
 -8.862154797505855316e-03
 -8.849227358922899522e-03
 -8.836439513252254685e-03
 -8.823790534157565160e-03
 -8.811279677526900889e-03
 -8.798906182141028390e-03
 -8.786669270315287938e-03
 -8.774568148565618092e-03
 -8.762602008235456999e-03
 -8.750770026139600630e-03
 -8.739071365178131823e-03
 -8.727505174958611819e-03
 -8.716070592393697705e-03
 -8.704766742311260269e-03
 -8.693592738023248404e-03
 -8.682547681922647351e-03
 -8.671630666042024968e-03
 -8.660840772614444155e-03
 -8.650177074614524841e-03
 -8.639638636315415121e-03
 -8.629224513793515988e-03
 -8.618933755467659413e-03
 -8.608765402603453173e-03
 -8.598718489794701311e-03
 -8.588792045477628215e-03
 -1.102447987805667794e-02
 -1.099959810830052585e-02
 -1.097472096309676931e-02
 -1.094985152352254479e-02
 -1.092499286676505525e-02
 -1.090014806459023954e-02
 -1.087532018179655433e-02
 -1.085051227467154558e-02
 -1.082572738948615540e-02
 -1.080096856096279638e-02
 -1.077623881079042140e-02
 -1.075154114612825867e-02
 -1.072687855813445751e-02
 -1.070225402051947113e-02
 -1.067767048810569670e-02
 -1.065313089541199652e-02
 -1.062863815526491305e-02
 -1.060419515742433601e-02
 -1.057980476723874297e-02
 -1.055546982432692925e-02
 -1.053119314127982237e-02
 -1.050697750240730047e-02
 -1.048282566248200272e-02
 -1.045874034555758017e-02
 -1.043472424377545928e-02
 -1.041078001623440066e-02
 -1.038691028788038019e-02
 -1.036311764843013752e-02
 -1.033940465133724972e-02
 -1.031577381278202428e-02
 -1.029222761071540287e-02
 -1.026876848392173011e-02
 -1.024539883113199934e-02
 -1.022212101017117881e-02
 -1.019893733714320218e-02
 -1.017585008565319304e-02
 -1.015286148608218406e-02
 -1.012997372487976257e-02
 -1.010718894391928087e-02
 -1.008450923987397503e-02
 -1.006193666365341396e-02
 -1.003947321985470577e-02
 -1.001712086628339833e-02
 -9.994881513486406771e-03
 -9.972757024352857033e-03
 -9.950749213724458322e-03
 -9.928859848074631303e-03
 -9.907090645208820739e-03
 -9.885443274011434037e-03
 -9.863919354223246727e-03
 -9.842520456271562634e-03
 -9.821248101124767718e-03
 -9.800103760190555582e-03
 -9.779088855251720155e-03
 -9.758204758430347528e-03
 -9.737452792203341728e-03
 -9.716834229430452649e-03
 -9.696350293440750279e-03
 -9.676002158132895187e-03
 -9.655790948123211051e-03
 -9.635717738907482316e-03
 -9.615783557082369093e-03
 -9.595989380558193546e-03
 -9.576336138845656723e-03
 -9.556824713331286622e-03
 -9.537455937605889000e-03
 -9.518230597813235466e-03
 -9.499149433016039826e-03
 -9.480213135604974653e-03
 -9.461422351707587247e-03
 -9.442777681645855500e-03
 -9.424279680404129556e-03
 -9.405928858108796725e-03
 -9.387725680542085768e-03
 -9.369670569678171038e-03
 -9.351763904223040977e-03
 -9.334006020177917223e-03
 -9.316397211427908734e-03
 -9.298937730339674329e-03
 -9.281627788356927242e-03
 -9.264467556658469508e-03
 -9.247457166756435643e-03
 -9.230596711182750477e-03
 -9.213886244135591208e-03
 -9.197325782139730704e-03
 -9.180915304755007250e-03
 -9.164654755244009202e-03
 -9.148544041274584218e-03
 -9.132583035639876140e-03
 -9.116771576939431201e-03
 -9.101109470322747350e-03
 -9.085596488195707421e-03
 -9.070232370945551306e-03
 -9.055016827671494642e-03
 -9.039949536915213926e-03
 -9.025030147382673631e-03
 -9.010258278691745185e-03
 -8.995633522088280001e-03
 -8.981155441191157607e-03
 -8.966823572711066573e-03
 -8.952637427196121628e-03
 -8.938596489742078530e-03
 -8.924700220730252473e-03
 -8.910948056540845055e-03
 -8.897339410280398833e-03
 -8.883873672483440925e-03
 -8.870550211825463036e-03
 -8.857368375843287928e-03
 -8.844327491608629591e-03
 -8.831426866434233247e-03
 -8.818665788560220431e-03
 -8.806043527834902032e-03
 -8.793559336381472427e-03
 -8.781212449269762063e-03
 -8.769002085170254229e-03
 -8.756927447009867777e-03
 -8.744987722602967986e-03
 -8.733182085302246961e-03
 -8.721509694601770751e-03
 -8.709969696776334244e-03
 -8.698561225466160118e-03
 -8.687283402289610115e-03
 -8.676135337431598038e-03
 -8.665116130206554357e-03
 -8.654224869647128907e-03
 -8.643460635053654140e-03
 -8.632822496541663754e-03
 -8.622309515583315501e-03
 -8.611920745539821190e-03
 -8.601655232173481547e-03
 -8.591512014162626734e-03
 -8.581490123600998138e-03
 -8.571588586472087684e-03
 -1.100320614083275493e-02
 -1.097834304036487962e-02
 -1.095348457301180238e-02
 -1.092863382552301636e-02
 -1.090379388075038078e-02
 -1.087896781608854550e-02
 -1.085415870193271251e-02
 -1.082936960012542693e-02
 -1.080460356244101854e-02
 -1.077986362905270293e-02
 -1.075515282702539134e-02
 -1.073047416883190879e-02
 -1.070583065086345986e-02
 -1.068122525197163532e-02
 -1.065666093203595718e-02
 -1.063214063052581732e-02
 -1.060766726511598763e-02
 -1.058324373030255193e-02
 -1.055887289605018237e-02
 -1.053455760647354668e-02
 -1.051030067853002924e-02
 -1.048610490075529283e-02
 -1.046197303201616864e-02
 -1.043790780031152686e-02
 -1.041391190157834289e-02
 -1.038998799856214079e-02
 -1.036613871969281966e-02
 -1.034236665801159354e-02
 -1.031867437013235002e-02
 -1.029506437522990404e-02
 -1.027153915407114440e-02
 -1.024810114809323290e-02
 -1.022475275849472204e-02
 -1.020149634539483860e-02
 -1.017833422701010758e-02
 -1.015526867888027693e-02
 -1.013230193313292317e-02
 -1.010943617778525989e-02
 -1.008667355608971507e-02
 -1.006401616591843205e-02
 -1.004146605918966074e-02
 -1.001902524133195700e-02
 -9.996695670790697180e-03
 -9.974479258573702017e-03
 -9.952377867846369519e-03
 -9.930393313545234080e-03
 -9.908527362060132182e-03
 -9.886781730936393744e-03
 -9.865158088613826953e-03
 -9.843658054222100690e-03
 -9.822283197403185173e-03
 -9.801035038170546193e-03
 -9.779915046808859008e-03
 -9.758924643816160524e-03
 -9.738065199869107985e-03
 -9.717338035838482199e-03
 -9.696744422830427118e-03
 -9.676285582261195603e-03
 -9.655962685977442089e-03
 -9.635776856396211301e-03
 -9.615729166679359494e-03
 -9.595820640946757171e-03
 -9.576052254515660112e-03
 -9.556424934161124318e-03
 -9.536939558422928911e-03
 -9.517596957926865997e-03
 -9.498397915729725124e-03
 -9.479343167713387766e-03
 -9.460433402969257652e-03
 -9.441669264240695053e-03
 -9.423051348363369398e-03
 -9.404580206740922182e-03
 -9.386256345845658475e-03
 -9.368080227722435510e-03
 -9.350052270525278583e-03
 -9.332172849076329768e-03
 -9.314442295431466651e-03
 -9.296860899459215982e-03
 -9.279428909457621347e-03
 -9.262146532756098533e-03
 -9.245013936361238388e-03
 -9.228031247580681037e-03
 -9.211198554698473220e-03
 -9.194515907628824855e-03
 -9.177983318595261952e-03
 -9.161600762815967289e-03
 -9.145368179203973782e-03
 -9.129285471058012913e-03
 -9.113352506781894138e-03
 -9.097569120589635294e-03
 -9.081935113234218190e-03
 -9.066450252727524875e-03
 -9.051114275067117382e-03
 -9.035926884960890706e-03
 -9.020887756583662043e-03
 -9.005996534278077129e-03
 -8.991252833318802776e-03
 -8.976656240632754566e-03
 -8.962206315536357798e-03
 -8.947902590476182472e-03
 -8.933744571751041016e-03
 -8.919731740254491573e-03
 -8.905863552190749696e-03
 -8.892139439811401133e-03
 -8.878558812118358609e-03
 -8.865121055600040309e-03
 -8.851825534929063516e-03
 -8.838671593675160448e-03
 -8.825658555003473849e-03
 -8.812785722368047386e-03
 -8.800052380206015157e-03
 -8.787457794612537482e-03
 -8.775001214016999590e-03
 -8.762681869855569114e-03
 -8.750498977224401009e-03
 -8.738451735531583067e-03
 -8.726539329141467724e-03
 -8.714760928018814787e-03
 -8.703115688333875125e-03
 -8.691602753097469464e-03
 -8.680221252760291981e-03
 -8.668970305820037497e-03
 -8.657849019394547180e-03
 -8.646856489815939184e-03
 -8.635991803197523228e-03
 -8.625254035986679516e-03
 -8.614642255520343211e-03
 -8.604155520559248968e-03
 -8.593792881825407237e-03
 -8.583553382515927629e-03
 -8.573436058806194540e-03
 -8.563439940364585626e-03
 -8.553564050821946957e-03
 -1.098091993799020505e-02
 -1.095607752138101285e-02
 -1.093123974603804789e-02
 -1.090640970411704651e-02
 -1.088159048385701350e-02
 -1.085678516801554146e-02
 -1.083199683231045665e-02
 -1.080722854387418733e-02
 -1.078248335971168474e-02
 -1.075776432517741923e-02
 -1.073307447245656215e-02
 -1.070841681906234237e-02
 -1.068379436635316301e-02
 -1.065921009807118888e-02
 -1.063466697888074131e-02
 -1.061016795295315236e-02
 -1.058571594255174921e-02
 -1.056131384665445413e-02
 -1.053696453959771830e-02
 -1.051267086973556482e-02
 -1.048843565814882618e-02
 -1.046426169735678417e-02
 -1.044015175008226014e-02
 -1.041610854802562346e-02
 -1.039213479069046354e-02
 -1.036823314423540587e-02
 -1.034440624034502730e-02
 -1.032065667516653650e-02
 -1.029698700824663998e-02
 -1.027339976153764968e-02
 -1.024989741841589828e-02
 -1.022648242275012338e-02
 -1.020315717800986816e-02
 -1.017992404640211818e-02
 -1.015678534805897898e-02
 -1.013374336025778082e-02
 -1.011080031668467293e-02
 -1.008795840673744511e-02
 -1.006521977486766160e-02
 -1.004258651996535814e-02
 -1.002006069479158788e-02
 -9.997644305426777595e-03
 -9.975339310798648704e-03
 -9.953147622215705037e-03
 -9.931071102962063871e-03
 -9.909111567920365210e-03
 -9.887270783249092407e-03
 -9.865550466086345574e-03
 -9.843952284297716876e-03
 -9.822477856266730728e-03
 -9.801128750721204916e-03
 -9.779906486594481391e-03
 -9.758812532930745062e-03
 -9.737848308830924712e-03
 -9.717015183409553891e-03
 -9.696314475834274041e-03
 -9.675747455348264470e-03
 -9.655315341366790122e-03
 -9.635019303589112058e-03
 -9.614860462145123632e-03
 -9.594839887778693413e-03
 -9.574958602063237539e-03
 -9.555217577634052967e-03
 -9.535617738474921543e-03
 -9.516159960205562360e-03
 -9.496845070423897903e-03
 -9.477673849056154204e-03
 -9.458647028736619569e-03
 -9.439765295217984742e-03
 -9.421029287810250494e-03
 -9.402439599820986565e-03
 -9.383996779047226386e-03
 -9.365701328266105852e-03
 -9.347553705755315065e-03
 -9.329554325832808970e-03
 -9.311703559412987455e-03
 -9.294001734581754451e-03
 -9.276449137191153382e-03
 -9.259046011452515962e-03
 -9.241792560575693913e-03
 -9.224688947395575170e-03
 -9.207735295013749419e-03
 -9.190931687471318862e-03
 -9.174278170407413127e-03
 -9.157774751749652581e-03
 -9.141421402397580803e-03
 -9.125218056923014090e-03
 -9.109164614278051492e-03
 -9.093260938504965293e-03
 -9.077506859451807408e-03
 -9.061902173511779748e-03
 -9.046446644322185537e-03
 -9.031140003525273824e-03
 -9.015981951493379914e-03
 -9.000972158046689764e-03
 -8.986110263227009912e-03
 -8.971395877999079754e-03
 -8.956828585016677474e-03
 -8.942407939351302779e-03
 -8.928133469221537916e-03
 -8.914004676744783154e-03
 -8.900021038655329952e-03
 -8.886182007047025572e-03
 -8.872487010084230408e-03
 -8.858935452745920688e-03
 -8.845526717520341142e-03
 -8.832260165149223921e-03
 -8.819135135295438563e-03
 -8.806150947290859038e-03
 -8.793306900795778980e-03
 -8.780602276510273210e-03
 -8.768036336851123269e-03
 -8.755608326631596564e-03
 -8.743317473719158101e-03
 -8.731162989713263378e-03
 -8.719144070581837103e-03
 -8.707259897319396050e-03
 -8.695509636566787701e-03
 -8.683892441263040343e-03
 -8.672407451232481967e-03
 -8.661053793817445959e-03
 -8.649830584471225603e-03
 -8.638736927334444635e-03
 -8.627771915836961181e-03
 -8.616934633255923098e-03
 -8.606224153270312233e-03
 -8.595639540522110114e-03
 -8.585179851151175656e-03
 -8.574844133324127649e-03
 -8.564631427752142367e-03
 -8.554540768211897975e-03
 -8.544571182017002969e-03
 -8.534721690535585631e-03
 -1.095762128790031022e-02
 -1.093280160536480930e-02
 -1.090798657183023046e-02
 -1.088317928457886198e-02
 -1.085838283696286856e-02
 -1.083360031681893446e-02
 -1.080883480491643713e-02
 -1.078408937339589424e-02
 -1.075936708422635217e-02
 -1.073467098766469133e-02
 -1.071000412074092113e-02
 -1.068536950574325295e-02
 -1.066077014873070654e-02
 -1.063620903805577965e-02
 -1.061168914291750476e-02
 -1.058721341191227669e-02
 -1.056278477164035098e-02
 -1.053840612529887734e-02
 -1.051408035133398131e-02
 -1.048981030209515837e-02
 -1.046559880252538426e-02
 -1.044144864888628225e-02
 -1.041736260750300395e-02
 -1.039334341354321463e-02
 -1.036939376983291028e-02
 -1.034551634570721537e-02
 -1.032171377587674452e-02
 -1.029798865935581745e-02
 -1.027434355840911237e-02
 -1.025078099753874011e-02
 -1.022730346250866861e-02
 -1.020391339941359617e-02
 -1.018061321377451006e-02
 -1.015740526968367773e-02
 -1.013429188898721037e-02
 -1.011127535049709779e-02
 -1.008835788927062681e-02
 -1.006554169589001305e-02
 -1.004282891582128009e-02
 -1.002022164879698765e-02
 -9.997721948232007882e-03
 -9.975331820700771707e-03
 -9.953053225438688451e-03
 -9.930888073887820036e-03
 -9.908838229298812250e-03
 -9.886905506341844840e-03
 -9.865091670798716364e-03
 -9.843398439255895277e-03
 -9.821827478859481569e-03
 -9.800380407116338066e-03
 -9.779058791705309145e-03
 -9.757864150357831862e-03
 -9.736797950757308112e-03
 -9.715861610483354088e-03
 -9.695056496987390984e-03
 -9.674383927617538279e-03
 -9.653845169658840236e-03
 -9.633441440419851162e-03
 -9.613173907365707774e-03
 -9.593043688249220519e-03
 -9.573051851312495281e-03
 -9.553199415498861077e-03
 -9.533487350695014906e-03
 -9.513916578011896025e-03
 -9.494487970095822488e-03
 -9.475202351449213758e-03
 -9.456060498803641259e-03
 -9.437063141504130337e-03
 -9.418210961911394064e-03
 -9.399504595856637834e-03
 -9.380944633084340595e-03
 -9.362531617740359191e-03