<VTKFile type="UnstructuredGrid" byte_order="BigEndian">
<UnstructuredGrid><Piece NumberOfPoints="660" NumberOfCells="608">
<Points>
 <DataArray type="Float32" NumberOfComponents="3" format="ascii">
 -1.747032511048018932e-03 9.695137850940227509e-03 0.000000000000000000e+00
 -1.743406639434397221e-03 9.661763906478881836e-03 0.000000000000000000e+00
 -1.739519415423274040e-03 9.625986218452453613e-03 0.000000000000000000e+00
 -1.735356287099421024e-03 9.587668813765048981e-03 0.000000000000000000e+00
 -1.730902818962931633e-03 9.546677581965923309e-03 0.000000000000000000e+00
 -1.726145157590508461e-03 9.502887725830078125e-03 0.000000000000000000e+00
 -1.721070613712072372e-03 9.456180036067962646e-03 0.000000000000000000e+00
 -1.715667662210762501e-03 9.406451135873794556e-03 0.000000000000000000e+00
 -1.709926989860832691e-03 9.353613480925559998e-03 0.000000000000000000e+00
 -1.703841611742973328e-03 9.297602809965610504e-03 0.000000000000000000e+00
 -1.697407220490276814e-03 9.238379076123237610e-03 0.000000000000000000e+00
 -1.690622535534203053e-03 9.175932034850120544e-03 0.000000000000000000e+00
 -1.683490234427154064e-03 9.110284969210624695e-03 0.000000000000000000e+00
 -1.676016021519899368e-03 9.041490964591503143e-03 0.000000000000000000e+00
 -1.668209326453506947e-03 8.969636633992195129e-03 0.000000000000000000e+00
 -1.660082838498055935e-03 8.894840255379676819e-03 0.000000000000000000e+00
 -1.651652390137314796e-03 8.817244321107864380e-03 0.000000000000000000e+00
 -1.642935792915523052e-03 8.737016469240188599e-03 0.000000000000000000e+00
 -1.633953186683356762e-03 8.654339239001274109e-03 0.000000000000000000e+00
 -1.624725526198744774e-03 8.569405414164066315e-03 0.000000000000000000e+00
 -1.615274581126868725e-03 8.482418023049831390e-03 0.000000000000000000e+00
 -1.605622237548232079e-03 8.393577300012111664e-03 0.000000000000000000e+00
 -1.595790497958660126e-03 8.303084410727024078e-03 0.000000000000000000e+00
 -1.585800899192690849e-03 8.211137726902961731e-03 0.000000000000000000e+00
 -1.575674396008253098e-03 8.117932826280593872e-03 0.000000000000000000e+00
 -1.565432059578597546e-03 8.023660629987716675e-03 0.000000000000000000e+00
 -1.555094611831009388e-03 7.928512990474700928e-03 0.000000000000000000e+00
 -1.544682541862130165e-03 7.832678966224193573e-03 0.000000000000000000e+00
 -1.534216920845210552e-03 7.736351341009140015e-03 0.000000000000000000e+00
 -1.523718703538179398e-03 7.639724761247634888e-03 0.000000000000000000e+00
 -1.513209543190896511e-03 7.542996667325496674e-03 0.000000000000000000e+00
 -1.502711325883865356e-03 7.446369156241416931e-03 0.000000000000000000e+00
 -1.492246286943554878e-03 7.350047584623098373e-03 0.000000000000000000e+00
 -1.657867920584976673e-03 9.724997915327548981e-03 0.000000000000000000e+00
 -1.654407824389636517e-03 9.691424667835235596e-03 0.000000000000000000e+00
 -1.650699996389448643e-03 9.655447676777839661e-03 0.000000000000000000e+00
 -1.646730466745793819e-03 9.616932831704616547e-03 0.000000000000000000e+00
 -1.642485847696661949e-03 9.575747884809970856e-03 0.000000000000000000e+00
 -1.637953100726008415e-03 9.531766176223754883e-03 0.000000000000000000e+00
 -1.633120002225041389e-03 9.484872221946716309e-03 0.000000000000000000e+00
 -1.627975958399474621e-03 9.434960782527923584e-03 0.000000000000000000e+00
 -1.622512005269527435e-03 9.381944313645362854e-03 0.000000000000000000e+00
 -1.616721157915890217e-03 9.325756691396236420e-03 0.000000000000000000e+00
 -1.610599225386977196e-03 9.266356937587261200e-03 0.000000000000000000e+00
 -1.604144927114248276e-03 9.203731082379817963e-03 0.000000000000000000e+00
 -1.597360009327530861e-03 9.137898683547973633e-03 0.000000000000000000e+00
 -1.590249594300985336e-03 9.068908169865608215e-03 0.000000000000000000e+00
 -1.582822180353105068e-03 8.996839635074138641e-03 0.000000000000000000e+00
 -1.575088943354785442e-03 8.921805769205093384e-03 0.000000000000000000e+00
 -1.567064202390611172e-03 8.843943476676940918e-03 0.000000000000000000e+00
 -1.558764372020959854e-03 8.763412013649940491e-03 0.000000000000000000e+00
 -1.550207729451358318e-03 8.680387400090694427e-03 0.000000000000000000e+00
 -1.541413483209908009e-03 8.595057763159275055e-03 0.000000000000000000e+00
 -1.532401773147284985e-03 8.507619611918926239e-03 0.000000000000000000e+00
 -1.523193204775452614e-03 8.418269455432891846e-03 0.000000000000000000e+00
 -1.513808034360408783e-03 8.327207528054714203e-03 0.000000000000000000e+00
 -1.504266634583473206e-03 8.234628476202487946e-03 0.000000000000000000e+00
 -1.494589028880000114e-03 8.140728808939456940e-03 0.000000000000000000e+00
 -1.484795240685343742e-03 8.045700378715991974e-03 0.000000000000000000e+00
 -1.474904944188892841e-03 7.949735969305038452e-03 0.000000000000000000e+00
 -1.464938279241323471e-03 7.853031158447265625e-03 0.000000000000000000e+00
 -1.454915385693311691e-03 7.755780126899480820e-03 0.000000000000000000e+00
 -1.444856752641499043e-03 7.658183574676513672e-03 0.000000000000000000e+00
 -1.434783451259136200e-03 7.560444064438343048e-03 0.000000000000000000e+00
 -1.424716901965439320e-03 7.462769281119108200e-03 0.000000000000000000e+00
 -1.414678758010268211e-03 7.365370634943246841e-03 0.000000000000000000e+00
 -1.568345236591994762e-03 9.753463789820671082e-03 0.000000000000000000e+00
 -1.565053709782660007e-03 9.719698689877986908e-03 0.000000000000000000e+00
 -1.561527955345809460e-03 9.683531709015369415e-03 0.000000000000000000e+00
 -1.557754934765398502e-03 9.644829668104648590e-03 0.000000000000000000e+00
 -1.553722075186669827e-03 9.603460319340229034e-03 0.000000000000000000e+00
 -1.549417153000831604e-03 9.559300728142261505e-03 0.000000000000000000e+00
 -1.544828643091022968e-03 9.512231685221195221e-03 0.000000000000000000e+00
 -1.539946417324244976e-03 9.462151676416397095e-03 0.000000000000000000e+00
 -1.534762093797326088e-03 9.408970363438129425e-03 0.000000000000000000e+00
 -1.529268920421600342e-03 9.352622553706169128e-03 0.000000000000000000e+00
 -1.523462706245481968e-03 9.293063543736934662e-03 0.000000000000000000e+00
 -1.517341937869787216e-03 9.230276569724082947e-03 0.000000000000000000e+00
 -1.510907895863056183e-03 9.164277464151382446e-03 0.000000000000000000e+00
 -1.504165004007518291e-03 9.095109067857265472e-03 0.000000000000000000e+00
 -1.497120596468448639e-03 9.022847749292850494e-03 0.000000000000000000e+00
 -1.489784801378846169e-03 8.947597816586494446e-03 0.000000000000000000e+00
 -1.482170308008790016e-03 8.869490586221218109e-03 0.000000000000000000e+00
 -1.474292133934795856e-03 8.788676932454109192e-03 0.000000000000000000e+00
 -1.466166810132563114e-03 8.705327287316322327e-03 0.000000000000000000e+00
 -1.457811915315687656e-03 8.619624190032482147e-03 0.000000000000000000e+00
 -1.449246192350983620e-03 8.531757630407810211e-03 0.000000000000000000e+00
 -1.440488500520586967e-03 8.441922254860401154e-03 0.000000000000000000e+00
 -1.431557815521955490e-03 8.350311778485774994e-03 0.000000000000000000e+00
 -1.422473113052546978e-03 8.257122710347175598e-03 0.000000000000000000e+00
 -1.413253601640462875e-03 8.162548765540122986e-03 0.000000000000000000e+00
 -1.403917907737195492e-03 8.066785521805286407e-03 0.000000000000000000e+00
 -1.394485356286168098e-03 7.970026694238185883e-03 0.000000000000000000e+00
 -1.384974922984838486e-03 7.872469723224639893e-03 0.000000000000000000e+00
 -1.375406282022595406e-03 7.774315774440765381e-03 0.000000000000000000e+00
 -1.365799340419471264e-03 7.675768341869115829e-03 0.000000000000000000e+00
 -1.356174354441463947e-03 7.577036507427692413e-03 0.000000000000000000e+00
 -1.346552162431180477e-03 7.478333078324794769e-03 0.000000000000000000e+00
 -1.336953951977193356e-03 7.379875052720308304e-03 0.000000000000000000e+00
 -1.478472724556922913e-03 9.780510328710079193e-03 0.000000000000000000e+00
 -1.475352444685995579e-03 9.746562689542770386e-03 0.000000000000000000e+00
 -1.472011674195528030e-03 9.710215032100677490e-03 0.000000000000000000e+00
 -1.468438073061406612e-03 9.671335108578205109e-03 0.000000000000000000e+00
 -1.464619883336126804e-03 9.629793465137481689e-03 0.000000000000000000e+00
 -1.460545579902827740e-03 9.585466235876083374e-03 0.000000000000000000e+00
 -1.456204685382544994e-03 9.538237005472183228e-03 0.000000000000000000e+00
 -1.451587304472923279e-03 9.488001465797424316e-03 0.000000000000000000e+00
 -1.446685637347400188e-03 9.434672072529792786e-03 0.000000000000000000e+00
 -1.441493164747953415e-03 9.378178976476192474e-03 0.000000000000000000e+00
 -1.436005812138319016e-03 9.318477474153041840e-03 0.000000000000000000e+00
 -1.430221833288669586e-03 9.255548939108848572e-03 0.000000000000000000e+00
 -1.424142043106257915e-03 9.189401753246784210e-03 0.000000000000000000e+00
 -1.417770166881382465e-03 9.120076894760131836e-03 0.000000000000000000e+00
 -1.411112607456743717e-03 9.047643281519412994e-03 0.000000000000000000e+00
 -1.404178212396800518e-03 8.972198702394962311e-03 0.000000000000000000e+00
 -1.396978506818413734e-03 8.893867023289203644e-03 0.000000000000000000e+00
 -1.389526878483593464e-03 8.812794461846351624e-03 0.000000000000000000e+00
 -1.381838228553533554e-03 8.729143999516963959e-03 0.000000000000000000e+00
 -1.373928855173289776e-03 8.643089793622493744e-03 0.000000000000000000e+00
 -1.365815522149205208e-03 8.554819040000438690e-03 0.000000000000000000e+00
 -1.357515808194875717e-03 8.464519865810871124e-03 0.000000000000000000e+00
 -1.349047408439218998e-03 8.372385054826736450e-03 0.000000000000000000e+00
 -1.340428134426474571e-03 8.278608322143554688e-03 0.000000000000000000e+00
 -1.331675681285560131e-03 8.183383382856845856e-03 0.000000000000000000e+00
 -1.322808209806680679e-03 8.086906746029853821e-03 0.000000000000000000e+00
 -1.313843764364719391e-03 7.989374920725822449e-03 0.000000000000000000e+00
 -1.304800738580524921e-03 7.890988141298294067e-03 0.000000000000000000e+00
[...]
<CellData>
 <DataArray Name="pos.x" type="Float32" NumberOfComponents="1" format="ascii">
 -1.700648396944513634e-03
 -1.696981315982604198e-03
 -1.693052578778502784e-03
 -1.688847991881378512e-03
 -1.684353805059681875e-03
 -1.679557053499378247e-03
 -1.674445948229874278e-03
 -1.669010302990411041e-03
 -1.663241978199539580e-03
 -1.657135314957340491e-03
 -1.650687525454654905e-03
 -1.643899002488165804e-03
 -1.636773511724929145e-03
 -1.629318237204090613e-03
 -1.621543663568142304e-03
 -1.613463296494994882e-03
 -1.605093243056622933e-03
 -1.596451692480837029e-03
 -1.587558351091444744e-03
 -1.578433890052218088e-03
 -1.569099459816788176e-03
 -1.559576312005150249e-03
 -1.549885550785783496e-03
 -1.540048015704455989e-03
 -1.530084280080835175e-03
 -1.520014736330828646e-03
 -1.509859733095355585e-03
 -1.499639728623819142e-03
 -1.489375429194702595e-03
 -1.479087888685573287e-03
 -1.468798553969579953e-03
 -1.458529249188479388e-03
 -1.611389653112261719e-03
 -1.607896511167040488e-03
 -1.604155669597246694e-03
 -1.600153790019692018e-03
 -1.595877937860303627e-03
 -1.591315895900540000e-03
 -1.586456521950749526e-03
 -1.581290140029026521e-03
 -1.575808947596126289e-03
 -1.570007414401537824e-03
 -1.563882642556230608e-03
 -1.557434654102763175e-03
 -1.550666573172470447e-03
 -1.543584675958981252e-03
 -1.536198293434558240e-03
 -1.528519567925238189e-03
 -1.520563082910061578e-03
 -1.512345402311958496e-03
 -1.503884567544659092e-03
 -1.495199604964277682e-03
 -1.486310092132210950e-03
 -1.477235819428053326e-03
 -1.467996566760484522e-03
 -1.458611996985750316e-03
 -1.449101651596765641e-03
 -1.439485022768866983e-03
 -1.429781670046790815e-03
 -1.420011349620310019e-03
 -1.410194128106653571e-03
 -1.400350459437136198e-03
 -1.390501211240314020e-03
 -1.380667634732772120e-03
 -1.521778325550762669e-03
 -1.518461936496274005e-03
 -1.514911848771937361e-03
 -1.511115571350152677e-03
 -1.507060979060372875e-03
 -1.502736598472682612e-03
 -1.498131933957750749e-03
 -1.493237824415633106e-03
 -1.488046815029940703e-03
 -1.482553522113359661e-03
 -1.476754963760619098e-03
 -1.470650825996718501e-03
 -1.464243634807923947e-03
 -1.457538809910767768e-03
 -1.450544586563102785e-03
 -1.443271806202742029e-03
 -1.435733593033284823e-03
 -1.427944948815710897e-03
 -1.419922308877000694e-03
 -1.411683106287993763e-03
 -1.403245387380355671e-03
 -1.394627511158954202e-03
 -1.385847950142596059e-03
 -1.376925193935711654e-03
 -1.367877742480207940e-03
 -1.358724165684349443e-03
 -1.349483200968059314e-03
 -1.340173860013944450e-03
 -1.330815519633231142e-03
 -1.321427977709925625e-03
 -1.312031462241798185e-03
 -1.302646588391317408e-03
 -1.431822758566449584e-03
 -1.428685936932344710e-03
 -1.425329457998546342e-03
 -1.421741669912449969e-03
 -1.417911250230016176e-03
 -1.413827465157737294e-03
 -1.409480465174370225e-03
 -1.404861608586880197e-03
 -1.399963799098092980e-03
 -1.394781817844762935e-03
 -1.389312625578348424e-03
 -1.383555607933254373e-03
 -1.377512737316403252e-03
 -1.371188629778652803e-03
 -1.364590484492841406e-03
 -1.357727906317700338e-03
 -1.350612626441252337e-03
 -1.343258149557633157e-03
 -1.335679365601691489e-03
 -1.327892167585841259e-03
 -1.319913113737882426e-03
 -1.311759162719775820e-03
 -1.303447497364082974e-03
 -1.294995437949353605e-03
 -1.286420433291570299e-03
 -1.277740108839427570e-03
 -1.268972346413514349e-03
 -1.260135370058984442e-03
 -1.251247815763113780e-03
 -1.242328768243813625e-03
 -1.233397754362853442e-03
 -1.224474688918179800e-03
 -1.341531372142427958e-03
 -1.338576932222604625e-03
 -1.335416912797224818e-03
 -1.332040492535057708e-03
 -1.328437144614735138e-03
 -1.324596870377654431e-03
 -1.320510465723648448e-03
 -1.316169812810943397e-03
 -1.311568184771714140e-03
 -1.306700546174079970e-03
 -1.301563827708570242e-03
 -1.296157151138243018e-03
 -1.290481981034029843e-03
 -1.284542184039746179e-03
 -1.278343984551193321e-03
 -1.271895817009138178e-03
 -1.265208087795221268e-03
 -1.258292871591431238e-03
 -1.251163575514331518e-03
 -1.243834607456818656e-03
 -1.236321082139637617e-03
 -1.228638590086762869e-03
 -1.220803042988407444e-03
 -1.212830596217213865e-03
 -1.204737638042996687e-03
 -1.196540827100980647e-03
 -1.188257155696345645e-03
 -1.179904016427763946e-03
 -1.171499252570936279e-03
 -1.163061177544618937e-03
 -1.154608554453829747e-03
 -1.146160532243649778e-03
 -1.250912661933240716e-03
 -1.248143416882386419e-03
 -1.245182702483701260e-03
 -1.242020518796904021e-03
 -1.238647127088599682e-03
 -1.235053258980951330e-03
 -1.231230354869891760e-03
 -1.227170825125893259e-03
 -1.222868323332755970e-03
 -1.218318016442444330e-03
 -1.213516832976566182e-03
 -1.208463668239137968e-03
 -1.203159525888514679e-03
 -1.197607578870550074e-03
 -1.191813139795140425e-03
 -1.185783540703357021e-03
 -1.179527933335067745e-03
 -1.173057031381144347e-03
 -1.166382823599658621e-03
 -1.159518289422095672e-03
 -1.152477146136559076e-03
 -1.145273649513679640e-03
 -1.137922459491564134e-03
 -1.130438571456668113e-03
 -1.122837303872220799e-03
 -1.115134326049789211e-03
 -1.107345706425920395e-03
 -1.099487961669239587e-03
 -1.091578089590874816e-03
 -1.083633573167249418e-03
 -1.075672348014360775e-03
 -1.067712730562189695e-03
 -1.159975199259618292e-03
 -1.157393960177396409e-03
 -1.154635390140731129e-03
 -1.151690300989094461e-03
 -1.148549734107924417e-03
 -1.145205146189877529e-03
 -1.141648620960976747e-03
 -1.137873101279081442e-03
 -1.133872632312000247e-03
 -1.129642602692104052e-03
 -1.125179967273307480e-03
 -1.120483433206630750e-03
 -1.115553591342973317e-03
 -1.110392978092333447e-03
 -1.105006058956556174e-03
 -1.099399133456961880e-03
 -1.093580170816799537e-03
 -1.087558594728765772e-03
 -1.081345041944275359e-03
 -1.074951121816725965e-03
 -1.068389201759806012e-03
 -1.061672237361129282e-03
 -1.054813657049065694e-03
 -1.047827301648818644e-03
 -1.040727410721835420e-03
 -1.033528641594355906e-03
 -1.026246104048877559e-03
 -1.018895393670736765e-03
 -1.011492609192693589e-03
 -1.004054343000188466e-03
 -9.965976383811880803e-04
 -9.891399114192404168e-04
 -1.068727631103256028e-03
 -1.066337206106358210e-03
 -1.063783612589634621e-03
 -1.061058464076849138e-03
 -1.058153573665177472e-03
 -1.055061117548033956e-03
 -1.051773821371531324e-03
 -1.048285164667688268e-03
 -1.044589595428677348e-03
 -1.040682743606590605e-03
 -1.036561619497413083e-03
 -1.032224781299158605e-03
 -1.027672456343002973e-03
 -1.022906603120258672e-03
 -1.017930906391999873e-03
 -1.012750704904853650e-03
 -1.007372859455348338e-03
 -1.001805576707603040e-03
 -9.960582096552614371e-04
 -9.901410576875276526e-04
 -9.840651873911485017e-04
 -9.778422899321000637e-04
 -9.714845833289874333e-04
 -9.650047597812624195e-04
 -9.584159710237483924e-04
 -9.517318395894978997e-04
 -9.449664813945369635e-04
 -9.381345251229963834e-04
 -9.312511159600140708e-04
 -9.243318945512161121e-04
 -9.173929459161604509e-04
 -9.104507167970269385e-04
 -9.771786801016379715e-04
 -9.749818733835590324e-04
 -9.726360803619714477e-04
 -9.701337056616592906e-04
 -9.674673252432261896e-04
 -9.646298288685456815e-04
 -9.616145824469018652e-04
 -9.584156062802550629e-04
 -9.550277625314702607e-04
 -9.514469424527425808e-04
 -9.476702414994072352e-04
 -9.436961090101421120e-04
 -9.395244592671826191e-04
 -9.351567329164194248e-04
 -9.305959020367822812e-04
 -9.258464182130231573e-04
 -9.209141098727152003e-04
 -9.158060416013303652e-04
 -9.105303527848624106e-04
 -9.050960946972180397e-04
 -8.995130836396437188e-04
 -8.937917833138666864e-04
 -8.879432232912451732e-04
 -8.819789535966656661e-04
 -8.759110293891811351e-04
 -8.697520154599073378e-04
 -8.635149982243153950e-04
 -8.572135929885381627e-04
 -8.508619360710435514e-04
 -8.444746542345439328e-04
 -8.380668071945213430e-04
 -8.316538021993912389e-04
 -8.853371445427905351e-04
 -8.833367554214997417e-04
 -8.812015776712137831e-04
 -8.789247959436113705e-04
 -8.764997397699684665e-04
 -8.739200061827624537e-04
 -8.711795994478689761e-04
 -8.682730846394125842e-04
 -8.651957495409796570e-04
 -8.619437670245561718e-04
 -8.585143480283512554e-04
 -8.549058740181201274e-04
 -8.511179978808001024e-04
 -8.471517039467169790e-04
 -8.430093213635287026e-04
 -8.386944900362719403e-04
 -8.342120840514234562e-04
 -8.295681028487847559e-04
 -8.247695442611998468e-04
 -8.198242750348259987e-04
 -8.147409132247464703e-04
 -8.095287332261818158e-04
 -8.041975989929774906e-04
 -7.987579253473157904e-04
 -7.932206623041472603e-04
 -7.875972938285259782e-04
 -7.818998407855307867e-04
 -7.761408579735512873e-04
 -7.703334166818612142e-04
 -7.644910666594728187e-04
 -7.586277741935355595e-04
 -7.527578357357962713e-04
 -7.932118983601547588e-04
 -7.914107203135208393e-04
 -7.894889623846022136e-04
 -7.874405776838865490e-04
 -7.852596395732906612e-04
 -7.829404456895794080e-04
 -7.804776364962214127e-04
 -7.778663257457048199e-04
 -7.751022383937529328e-04
 -7.721818495890728521e-04
 -7.691025166808127412e-04
 -7.658625951397528752e-04
 -7.624615292931359893e-04
 -7.588999101416886309e-04
 -7.551794953451481740e-04
 -7.513031904809181882e-04
 -7.472749952934729925e-04
 -7.430999229946315659e-04
 -7.387839038251901641e-04
 -7.343336853324582006e-04
 -7.297567408658854832e-04
 -7.250611948760032899e-04
 -7.202557694003649744e-04
 -7.153497515556660061e-04
 -7.103529778305142910e-04
 -7.052758281500961330e-04
 -7.001292213695196843e-04
 -6.949246040032451815e-04
 -6.896739253122811377e-04
 -6.843895939205825105e-04
 -6.790844134816023019e-04
 -6.737714972045744793e-04
 -7.008118911273782375e-04
 -6.992127108165217993e-04
 -6.975071659950493998e-04
 -6.956899661675211913e-04
 -6.937559183363644190e-04
 -6.917000137052517310e-04
 -6.895175265211665695e-04
 -6.872041230225763540e-04
 -6.847559769877597895e-04
 -6.821698868341309185e-04
 -6.794433878523069726e-04
 -6.765748522857426223e-04
 -6.735635699180824148e-04
 -6.704098028613563473e-04
 -6.671148104223579211e-04
 -6.636808430725088742e-04
 -6.601111081847241008e-04
 -6.564097136458706388e-04
 -6.525815979736145859e-04
 -6.486324565885089781e-04
 -6.445686731785661532e-04
 -6.403972628187013872e-04
 -6.361258302067273381e-04
 -6.317625427809881377e-04
 -6.273161153127914834e-04
 -6.227958003497594376e-04
 -6.182113778741631874e-04
 -6.135731377009029418e-04
 -6.088918492344494405e-04
 -6.041787148896513027e-04
 -5.994453054078897241e-04
 -5.947034771755316468e-04
 -6.081461480531928079e-04
 -6.067517443336808373e-04
 -6.052651935931704788e-04
 -6.036819491663302862e-04
 -6.019975410533814084e-04
 -6.002076466138285158e-04
 -5.983081712065670219e-04
 -5.962953372625186352e-04
 -5.941657791294818660e-04
 -5.919166398181001420e-04
 -5.895456646911130440e-04
 -5.870512864197068546e-04
 -5.844326954382835296e-04
 -5.816898908640582297e-04
 -5.788237084757389154e-04
 -5.758358247286176658e-04
 -5.727287385648395989e-04
 -5.695057354343136978e-04
 -5.661708399084772496e-04
 -5.627287640973522003e-04
 -5.591848585770873604e-04
 -5.555450708258881853e-04
 -5.518159136571299753e-04
 -5.480044433922128585e-04
 -5.441182450906337795e-04
 -5.401654204668855956e-04
 -5.361545733709876822e-04
 -5.320947878706056618e-04
 -5.279955948642178504e-04
 -5.238669245092959434e-04
 -5.197190432926398476e-04
 -5.155624760719672295e-04
 -5.152237699762712017e-04
 -5.140369128972307328e-04
 -5.127721238394080099e-04
 -5.114255869020794838e-04
 -5.099935439855965121e-04
 -5.084723508181889992e-04
 -5.068585409390307696e-04
 -5.051488965744055067e-04
 -5.033405244825018242e-04
 -5.014309339216263149e-04
 -4.994181130546092480e-04
 -4.973005995200066630e-04
 -4.950775407727701135e-04
 -4.927487402793360874e-04
 -4.903146868023930014e-04
 -4.877765657367184719e-04
 -4.851362535028198625e-04
 -4.823962979850398626e-04
 -4.795598894926941889e-04
 -4.766308273855950637e-04
 -4.736134871839365918e-04
 -4.705127917598711236e-04
 -4.673341883794949678e-04
 -4.640836313470066382e-04
 -4.607675682172070663e-04
 -4.573929263041994018e-04
 -4.539670956768614520e-04
 -4.504979049837782440e-04
 -4.469935871554170815e-04
 -4.434627330884977742e-04
 -4.399142326181929540e-04
 -4.363572032522586752e-04
 -4.220539333600923184e-04
 -4.210773831512705924e-04
 -4.200371089362683755e-04
 -4.189300120098747322e-04
 -4.177530346177964053e-04
 -4.165032026916504985e-04
 -4.151776747569093902e-04
 -4.137737963320312247e-04
 -4.122891585177139114e-04
 -4.107216588013588572e-04
 -4.090695614680579426e-04
 -4.073315545446004322e-04
 -4.055068000481592628e-04
 -4.035949745849327333e-04
 -4.015962980972514682e-04
 -3.995115497372582827e-04
 -3.973420712781529406e-04
 -3.950897598909115858e-04
 -3.927570532121501070e-04
 -3.903469101549456250e-04
 -3.878627907458944302e-04
 -3.853086374549012064e-04
 -3.826888592223284379e-04
 -3.800083179771779926e-04
 -3.772723161834669434e-04
 -3.744865830822568403e-04
 -3.716572569303485340e-04
 -3.687908606696112886e-04
 -3.658942689970637362e-04
 -3.629746656000408067e-04
 -3.600394902208248573e-04
 -3.570963760910228512e-04
 -3.286458902878459628e-04
 -3.278823963346175121e-04
 -3.270693746006906179e-04
 -3.262044295017617074e-04
 -3.252851916151574705e-04
 -3.243093485302008493e-04
 -3.232746803001456662e-04
 -3.221790991238477676e-04
 -3.210206924651161581e-04
 -3.197977683457417682e-04
 -3.185089010859506000e-04
 -3.171529753989227795e-04
 -3.157292265734069534e-04
 -3.142372745879244266e-04
 -3.126771504390513275e-04
 -3.110493137119186213e-04
 -3.093546613676700680e-04
 -3.075945286931988762e-04
 -3.057706841441972618e-04
 -3.038853202317508880e-04
 -3.019410425569841018e-04
 -2.999408586051711240e-04
 -2.978881670990930308e-04
 -2.957867477804913673e-04
 -2.936407506484155108e-04
 -2.914546830993769411e-04
 -2.892333931728629875e-04
 -2.869820472094541984e-04
 -2.847061006136304044e-04
 -2.824112609799920019e-04
 -2.801034434835009243e-04
 -2.777887190600206234e-04
 -2.350089684573225665e-04
 -2.344612682637319651e-04
 -2.338782200364882967e-04
 -2.332581167305954539e-04
 -2.325992647804901768e-04
 -2.319000045053772714e-04
 -2.311587337610376326e-04
 -2.303739347039533952e-04
 -2.295442032672297182e-04
 -2.286682806328575691e-04
 -2.277450856558443785e-04
 -2.267737469068397272e-04
 -2.257536328182101920e-04
 -2.246843784100078156e-04
 -2.235659072810430783e-04
 -2.223984479771294663e-04
 -2.211825444381292614e-04
 -2.199190608683465836e-04
 -2.186091819326724391e-04
 -2.172544095232889277e-04
 -2.158565573882522542e-04
 -2.144177446597108510e-04
 -2.129403888393445975e-04
 -2.114271982189420539e-04
 -2.098811631754365469e-04
 -2.083055453970881067e-04
 -2.067038639346484871e-04
 -2.050798770352312700e-04
 -2.034375589684465316e-04
 -2.017810714292689377e-04
 -2.001147295296072041e-04
 -1.984429628088206347e-04
 -1.411525711758270061e-04
 -1.408233893156087121e-04
 -1.404730179069588831e-04
 -1.401004233541017923e-04
 -1.397045750119129922e-04
 -1.392844566177299721e-04
 -1.388390798359171504e-04
 -1.383674999443153556e-04
 -1.378688335341515608e-04
 -1.373422778903333715e-04
 -1.367871314848238188e-04
 -1.362028147846895145e-04
 -1.355888903950095575e-04
 -1.349450814770194703e-04
 -1.342712874464593918e-04
 -1.335675961828806685e-04
 -1.328342923445861433e-04
 -1.320718618209614002e-04
 -1.312809927694342366e-04
 -1.304625739808435120e-04
 -1.296176914244975744e-04
 -1.287476237242081521e-04
 -1.278538370466563096e-04
 -1.269379795235748892e-04
 -1.260018749747489743e-04
 -1.250475154311694902e-04
 -1.240770518256787563e-04
 -1.230927822319989216e-04
 -1.220971371702818809e-04
 -1.210926617173936875e-04
 -1.200819944177531430e-04
 -1.190678432453545413e-04
 -4.708617735507193599e-05
 -4.697822441080552714e-05
 -4.686321430756330148e-05
 -4.674077129922091971e-05
 -4.661051426091300412e-05
 -4.647206065096886457e-05
 -4.632503167773037271e-05
 -4.616905878825372939e-05
 -4.600379150025969520e-05
 -4.582890645736950130e-05
 -4.564411740850685204e-05
 -4.544918561844452234e-05
 -4.524393004471353200e-05
 -4.502823651266903805e-05
 -4.480206512879186120e-05
 -4.456545531687133491e-05
 -4.431852813459537428e-05
 -4.406148588305953923e-05
 -4.379460938253260192e-05
 -4.351825356964343096e-05
 -4.323284220797396336e-05
 -4.293886246982158886e-05
 -4.263685996341996288e-05
 -4.232743450590748733e-05
 -4.201123665207839435e-05
 -4.168896474834669880e-05
 -4.136136213154320991e-05
 -4.102921404467292600e-05
 -4.069334388321696466e-05
 -4.035460848850008585e-05
 -4.001389233770787340e-05
 -3.967210061640208711e-05
 </DataArray>
 <DataArray Name="pos.y" type="Float32" NumberOfComponents="1" format="ascii">
 9.693347062119510651e-03
 9.658671447999473206e-03
 9.621524448979524788e-03
 9.581772430962113771e-03
 9.539285996610408561e-03
 9.493943208976250714e-03
 9.445633266286133922e-03
 9.394260516319186821e-03
 9.339748627873558848e-03
 9.282044664233811762e-03
 9.221122742179233001e-03
 9.156986925906870911e-03
 9.089673014684782407e-03
 9.019248948070365812e-03
 8.945813675518356906e-03
 8.869494506857629121e-03
 8.790443150881930429e-03
 8.708830825459186117e-03
 8.624842946885194137e-03
 8.538673950544922384e-03
 8.450522748912931911e-03
 8.360589207358135738e-03
 8.269071841664114506e-03
 8.176166751246181918e-03
 8.082067634672986112e-03
 7.986966615007947204e-03
 7.891055542888009838e-03
 7.794527442623554875e-03
 7.697577808561386833e-03
 7.600405528699511436e-03
 7.503213293472571661e-03
 7.406207426370132497e-03
 9.722411331583490079e-03
 9.687540684939453806e-03
 9.650200287630741544e-03
 9.610257599326573266e-03
 9.567584160831242926e-03
 9.522058711383538793e-03
 9.473570741144198698e-03
 9.422024372710996812e-03
 9.367342397793071776e-03
 9.309470225975521526e-03
 9.248379443868845473e-03
 9.184070650226980673e-03
 9.116575241362471702e-03
 9.045955882812810323e-03
 8.972305520010012345e-03
 8.895744941918661691e-03
 8.816419092911935776e-03
 8.734492495604906023e-03
 8.650144265519037548e-03
 8.563563240543269062e-03
 8.474943704330308025e-03
 8.384482063345514991e-03
 8.292374669432597822e-03
 8.198816799306245587e-03
 8.104002643494321104e-03
 8.008126044412958514e-03
 7.911381667144827545e-03
 7.813966284630997905e-03
 7.716079899630291956e-03
 7.617926492880276214e-03
 7.519714264601542325e-03
 7.421655312050723027e-03
 9.750072873709190319e-03
 9.715016029619747556e-03
 9.677491878204323369e-03
 9.637369028238066196e-03
 9.594520010858840348e-03
 9.548824288264527727e-03
 9.500171681328845735e-03
 9.448466115425687220e-03
 9.393629519433281672e-03
 9.335605647047802783e-03
 9.274363533759171288e-03
 9.209900271562609236e-03
 9.142242791537545654e-03
 9.071448402603892250e-03
 8.997603945245279469e-03
 8.920823571615374425e-03
 8.841245335117415768e-03
 8.759026931133997648e-03
 8.674341042450293623e-03
 8.587370782727473534e-03
 8.498305689808503122e-03
 8.407338607451703832e-03
 8.314663635121115337e-03
 8.220475154627893480e-03
 8.124967792181154308e-03
 8.028337067930555251e-03
 7.930780432502115840e-03
 7.832498388969221653e-03
 7.733695437983105145e-03
 7.634580648164674029e-03
 7.535367728268556851e-03
 7.436274549959498610e-03
 9.776307953313025448e-03
 9.741074064409344785e-03
 9.703376131235865593e-03
 9.663083966816464823e-03
 9.620071144704971100e-03
 9.574217896897838434e-03
 9.525414414062200602e-03
 9.473564452941351383e-03
 9.418589094881663071e-03
 9.360430437036217424e-03
 9.299054944902096845e-03
 9.234456165058283275e-03
 9.166656504307925737e-03
 9.095707836107731412e-03
 9.021690799236769392e-03
 8.944712797521760933e-03
 8.864904871352380714e-03
 8.782417761255673777e-03
 8.697417589300145829e-03
 8.610081621584478664e-03
 8.520594535775952508e-03
 8.429145510838117333e-03
 8.335926306132805316e-03
 8.241130336057110248e-03
 8.144952604909836205e-03
 8.047590266699411118e-03
 7.949243525592571136e-03
 7.850116592466628573e-03
 7.750418450918552735e-03
 7.650363247700149756e-03
 7.550170193611300748e-03
 7.450062929907875012e-03
 9.801092609198130273e-03
 9.765691149797035842e-03