<VTKFile type="UnstructuredGrid" byte_order="BigEndian">
<UnstructuredGrid><Piece NumberOfPoints="627" NumberOfCells="576">
<Points>
 <DataArray type="Float32" NumberOfComponents="3" format="ascii">
 -8.608201518654823303e-03 1.887714723125100136e-03 0.000000000000000000e+00
 -8.599248714745044708e-03 1.884426223114132881e-03 0.000000000000000000e+00
 -8.589142933487892151e-03 1.880714087747037411e-03 0.000000000000000000e+00
 -8.577781729400157928e-03 1.876541180536150932e-03 0.000000000000000000e+00
 -8.565070107579231262e-03 1.871871994808316231e-03 0.000000000000000000e+00
 -8.550919592380523682e-03 1.866674399934709072e-03 0.000000000000000000e+00
 -8.535258471965789795e-03 1.860921969637274742e-03 0.000000000000000000e+00
 -8.518036454916000366e-03 1.854596193879842758e-03 0.000000000000000000e+00
 -8.499230258166790009e-03 1.847688457928597927e-03 0.000000000000000000e+00
 -8.478851057589054108e-03 1.840203069150447845e-03 0.000000000000000000e+00
 -8.456950075924396515e-03 1.832158770412206650e-03 0.000000000000000000e+00
 -8.433623239398002625e-03 1.823590602725744247e-03 0.000000000000000000e+00
 -8.409012109041213989e-03 1.814550836570560932e-03 0.000000000000000000e+00
 -8.383305743336677551e-03 1.805108739063143730e-03 0.000000000000000000e+00
 -8.356735110282897949e-03 1.795349176973104477e-03 0.000000000000000000e+00
 -8.329566568136215210e-03 1.785369939170777798e-03 0.000000000000000000e+00
 -8.302092552185058594e-03 1.775278360582888126e-03 0.000000000000000000e+00
 -8.274618536233901978e-03 1.765186898410320282e-03 0.000000000000000000e+00
 -8.247449994087219238e-03 1.755207660607993603e-03 0.000000000000000000e+00
 -8.220878429710865021e-03 1.745447982102632523e-03 0.000000000000000000e+00
 -8.195172995328903198e-03 1.736005884595215321e-03 0.000000000000000000e+00
 -8.170561864972114563e-03 1.726966234855353832e-03 0.000000000000000000e+00
 -8.147235028445720673e-03 1.718398067168891430e-03 0.000000000000000000e+00
 -8.125334046781063080e-03 1.710353652015328407e-03 0.000000000000000000e+00
 -8.104954846203327179e-03 1.702868263237178326e-03 0.000000000000000000e+00
 -8.086148649454116821e-03 1.695960643701255322e-03 0.000000000000000000e+00
 -8.068926632404327393e-03 1.689634751528501511e-03 0.000000000000000000e+00
 -8.053265511989593506e-03 1.683882437646389008e-03 0.000000000000000000e+00
 -8.039114996790885925e-03 1.678684842772781849e-03 0.000000000000000000e+00
 -8.026402443647384644e-03 1.674015540629625320e-03 0.000000000000000000e+00
 -8.015042170882225037e-03 1.669842633418738842e-03 0.000000000000000000e+00
 -8.004936389625072479e-03 1.666130614466965199e-03 0.000000000000000000e+00
 -7.995982654392719269e-03 1.662842114455997944e-03 0.000000000000000000e+00
 -8.592247962951660156e-03 1.991712255403399467e-03 0.000000000000000000e+00
 -8.583311922848224640e-03 1.988226547837257385e-03 0.000000000000000000e+00
 -8.573224768042564392e-03 1.984291942790150642e-03 0.000000000000000000e+00
 -8.561885915696620941e-03 1.979868859052658081e-03 0.000000000000000000e+00
 -8.549197576940059662e-03 1.974919810891151428e-03 0.000000000000000000e+00
 -8.535074070096015930e-03 1.969410572201013565e-03 0.000000000000000000e+00
 -8.519442752003669739e-03 1.963313436135649681e-03 0.000000000000000000e+00
 -8.502253331243991852e-03 1.956608379259705544e-03 0.000000000000000000e+00
 -8.483482524752616882e-03 1.949286670424044132e-03 0.000000000000000000e+00
 -8.463142439723014832e-03 1.941352616995573044e-03 0.000000000000000000e+00
 -8.441282436251640320e-03 1.932826009579002857e-03 0.000000000000000000e+00
 -8.418000303208827972e-03 1.923744333907961845e-03 0.000000000000000000e+00
 -8.393435738980770111e-03 1.914162654429674149e-03 0.000000000000000000e+00
 -8.367778733372688293e-03 1.904154662042856216e-03 0.000000000000000000e+00
 -8.341258391737937927e-03 1.893809996545314789e-03 0.000000000000000000e+00
 -8.314141072332859039e-03 1.883232616819441319e-03 0.000000000000000000e+00
 -8.286719210445880890e-03 1.872536144219338894e-03 0.000000000000000000e+00
 -8.259296417236328125e-03 1.861839788034558296e-03 0.000000000000000000e+00
 -8.232179097831249237e-03 1.851262291893362999e-03 0.000000000000000000e+00
 -8.205658756196498871e-03 1.840917742811143398e-03 0.000000000000000000e+00
 -8.180001750588417053e-03 1.830909634009003639e-03 0.000000000000000000e+00
 -8.155437186360359192e-03 1.821328070946037769e-03 0.000000000000000000e+00
 -8.132155053317546844e-03 1.812246278859674931e-03 0.000000000000000000e+00
 -8.110295049846172333e-03 1.803719787858426571e-03 0.000000000000000000e+00
 -8.089954964816570282e-03 1.795785618014633656e-03 0.000000000000000000e+00
 -8.071184158325195312e-03 1.788463909178972244e-03 0.000000000000000000e+00
 -8.053994737565517426e-03 1.781758852303028107e-03 0.000000000000000000e+00
 -8.038363419473171234e-03 1.775661716237664223e-03 0.000000000000000000e+00
 -8.024239912629127502e-03 1.770152593962848186e-03 0.000000000000000000e+00
 -8.011551573872566223e-03 1.765203429386019707e-03 0.000000000000000000e+00
 -8.000212721526622772e-03 1.760780345648527145e-03 0.000000000000000000e+00
 -7.990125566720962524e-03 1.756845740601420403e-03 0.000000000000000000e+00
 -7.981189526617527008e-03 1.753360149450600147e-03 0.000000000000000000e+00
 -8.575468324124813080e-03 2.095669507980346680e-03 0.000000000000000000e+00
 -8.566549047827720642e-03 2.091984963044524193e-03 0.000000000000000000e+00
 -8.556482382118701935e-03 2.087825443595647812e-03 0.000000000000000000e+00
 -8.545164950191974640e-03 2.083149738609790802e-03 0.000000000000000000e+00
 -8.532500825822353363e-03 2.077918034046888351e-03 0.000000000000000000e+00
 -8.518404327332973480e-03 2.072094008326530457e-03 0.000000000000000000e+00
 -8.502803742885589600e-03 2.065648557618260384e-03 0.000000000000000000e+00
 -8.485646918416023254e-03 2.058560727164149284e-03 0.000000000000000000e+00
 -8.466912433505058289e-03 2.050820738077163696e-03 0.000000000000000000e+00
 -8.446611464023590088e-03 2.042433246970176697e-03 0.000000000000000000e+00
 -8.424794301390647888e-03 2.033419674262404442e-03 0.000000000000000000e+00
 -8.401556871831417084e-03 2.023819135501980782e-03 0.000000000000000000e+00
 -8.377039805054664612e-03 2.013690304011106491e-03 0.000000000000000000e+00
 -8.351432159543037415e-03 2.003110479563474655e-03 0.000000000000000000e+00
 -8.324963040649890900e-03 1.992174889892339706e-03 0.000000000000000000e+00
 -8.297897875308990479e-03 1.980993198230862617e-03 0.000000000000000000e+00
 -8.270529098808765411e-03 1.969685778021812439e-03 0.000000000000000000e+00
 -8.243159390985965729e-03 1.958378357812762260e-03 0.000000000000000000e+00
 -8.216095156967639923e-03 1.947196782566606998e-03 0.000000000000000000e+00
 -8.189626038074493408e-03 1.936261309310793877e-03 0.000000000000000000e+00
 -8.164017461240291595e-03 1.925681484863162041e-03 0.000000000000000000e+00
 -8.139501325786113739e-03 1.915552536956965923e-03 0.000000000000000000e+00
 -8.116262964904308319e-03 1.905951998196542263e-03 0.000000000000000000e+00
 -8.094445802271366119e-03 1.896938425488770008e-03 0.000000000000000000e+00
 -8.074144832789897919e-03 1.888551050797104836e-03 0.000000000000000000e+00
 -8.055410347878932953e-03 1.880811061710119247e-03 0.000000000000000000e+00
 -8.038254454731941223e-03 1.873723114840686321e-03 0.000000000000000000e+00
 -8.022652938961982727e-03 1.867277664132416248e-03 0.000000000000000000e+00
 -8.008556440472602844e-03 1.861453754827380180e-03 0.000000000000000000e+00
 -7.995893247425556183e-03 1.856221933849155903e-03 0.000000000000000000e+00
 -7.984575815498828888e-03 1.851546228863298893e-03 0.000000000000000000e+00
 -7.974508218467235565e-03 1.847386825829744339e-03 0.000000000000000000e+00
 -7.965588942170143127e-03 1.843702164478600025e-03 0.000000000000000000e+00
 -8.557866327464580536e-03 2.199592767283320427e-03 0.000000000000000000e+00
 -8.548964746296405792e-03 2.195706823840737343e-03 0.000000000000000000e+00
 -8.538916707038879395e-03 2.191320527344942093e-03 0.000000000000000000e+00
 -8.527621626853942871e-03 2.186389407142996788e-03 0.000000000000000000e+00
 -8.514983579516410828e-03 2.180872019380331039e-03 0.000000000000000000e+00
 -8.500914089381694794e-03 2.174730179831385612e-03 0.000000000000000000e+00
 -8.485343307256698608e-03 2.167932922020554543e-03 0.000000000000000000e+00
 -8.468220941722393036e-03 2.160457894206047058e-03 0.000000000000000000e+00
 -8.449523709714412689e-03 2.152295317500829697e-03 0.000000000000000000e+00
 -8.429261855781078339e-03 2.143450081348419189e-03 0.000000000000000000e+00
 -8.407487533986568451e-03 2.133944537490606308e-03 0.000000000000000000e+00
 -8.384295739233493805e-03 2.123819896951317787e-03 0.000000000000000000e+00
 -8.359826169908046722e-03 2.113137859851121902e-03 0.000000000000000000e+00
 -8.334268815815448761e-03 2.101980615407228470e-03 0.000000000000000000e+00
 -8.307851850986480713e-03 2.090448047965764999e-03 0.000000000000000000e+00
 -8.280839771032333374e-03 2.078655874356627464e-03 0.000000000000000000e+00
 -8.253524079918861389e-03 2.066731220111250877e-03 0.000000000000000000e+00
 -8.226208388805389404e-03 2.054806565865874290e-03 0.000000000000000000e+00
 -8.199196308851242065e-03 2.043014392256736755e-03 0.000000000000000000e+00
 -8.172779344022274017e-03 2.031481824815273285e-03 0.000000000000000000e+00
 -8.147221989929676056e-03 2.020324580371379852e-03 0.000000000000000000e+00
 -8.122753351926803589e-03 2.009642776101827621e-03 0.000000000000000000e+00
 -8.099560625851154327e-03 1.999518135562539101e-03 0.000000000000000000e+00
 -8.077786304056644440e-03 1.990012358874082565e-03 0.000000000000000000e+00
 -8.057524450123310089e-03 1.981167122721672058e-03 0.000000000000000000e+00
 -8.038827218115329742e-03 1.973004546016454697e-03 0.000000000000000000e+00
 -8.021704852581024170e-03 1.965529751032590866e-03 0.000000000000000000e+00
 -8.006134070456027985e-03 1.958732260391116142e-03 0.000000000000000000e+00
[...]
<CellData>
 <DataArray Name="pos.x" type="Float32" NumberOfComponents="1" format="ascii">
 -8.595752233803930983e-03
 -8.586232110940967416e-03
 -8.575509277780189732e-03
 -8.563484767161911801e-03
 -8.550066826838441728e-03
 -8.535176003216774290e-03
 -8.518750972684542566e-03
 -8.500754887463178588e-03
 -8.481181859185792787e-03
 -8.460063057310521217e-03
 -8.437471777444340015e-03
 -8.413526770444230279e-03
 -8.388393150710311483e-03
 -8.362280346436927470e-03
 -8.335436820310964876e-03
 -8.308141652621841775e-03
 -8.280693485989578870e-03
 -8.253397706714550586e-03
 -8.226553003920271390e-03
 -8.200438544257745641e-03
 -8.175302904788595351e-03
 -8.151355641585441777e-03
 -8.128761996046170862e-03
 -8.107640833159334218e-03
 -8.088065541722632215e-03
 -8.070067359578398519e-03
 -8.053640441841447908e-03
 -8.038747961958359056e-03
 -8.025328599539331351e-03
 -8.013302890996063313e-03
 -8.002579065460577179e-03
 -7.993058132418720887e-03
 -8.579393588260635778e-03
 -8.569891679622833325e-03
 -8.559189362011943025e-03
 -8.547187857671809802e-03
 -8.533795589943021787e-03
 -8.518933257278440974e-03
 -8.502539653392137201e-03
 -8.484578000953944821e-03
 -8.465042422759522581e-03
 -8.443964028456573886e-03
 -8.421415973172127756e-03
 -8.397516780246394238e-03
 -8.372431247815045885e-03
 -8.346368403008097223e-03
 -8.319576232792865247e-03
 -8.292333283240126487e-03
 -8.264937625438532540e-03
 -8.237694061407939763e-03
 -8.210900708957601102e-03
 -8.184836200920734064e-03
 -8.159748639173458606e-03
 -8.135847179325798872e-03
 -8.113296747103310516e-03
 -8.092215980521585625e-03
 -8.072678128336400333e-03
 -8.054714368911282743e-03
 -8.038318868735003231e-03
 -8.023454871809099914e-03
 -8.010061175091674410e-03
 -7.998058466995543528e-03
 -7.987355152161762159e-03
 -7.977852429366497772e-03
 -8.562211012928701639e-03
 -8.552727584380984127e-03
 -8.542046081757598275e-03
 -8.530067919464456513e-03
 -8.516701699001644546e-03
 -8.501868273077296118e-03
 -8.485506554445573085e-03
 -8.467579837259844172e-03
 -8.448082255642429955e-03
 -8.427044858571128977e-03
 -8.404540658654166205e-03
 -8.380687948412705521e-03
 -8.355651205124487238e-03
 -8.329639049019116684e-03
 -8.302898984423101592e-03
 -8.275709015405720986e-03
 -8.248366633194075329e-03
 -8.221176046991770028e-03
 -8.194434794951899886e-03
 -8.168420968279946695e-03
 -8.143382186707107465e-03
 -8.119527199509979365e-03
 -8.097020612106767962e-03
 -8.075980832201512527e-03
 -8.056480966446358249e-03
 -8.038552132840607461e-03
 -8.022188509399907214e-03
 -8.007353411708462501e-03
 -7.993985755784889860e-03
 -7.982006384261511323e-03
 -7.971323879854474645e-03
 -7.961839633407097674e-03
 -8.544207798758887001e-03
 -8.534743061728904123e-03
 -8.524082612218852537e-03
 -8.512128058996775229e-03
 -8.498788183748818420e-03
 -8.483983995204783662e-03
 -8.467654526523135661e-03
 -8.449763144154364553e-03
 -8.430303993693178191e-03
 -8.409308062753913932e-03
 -8.386848219813896818e-03
 -8.363042523955616092e-03
 -8.338055127943033371e-03
 -8.312094240478684615e-03
 -8.285406877742332310e-03
 -8.258270495617909407e-03
 -8.230981998842529582e-03
 -8.203844997028324551e-03
 -8.177156442026206964e-03
 -8.151193877200766172e-03
 -8.126204434600960841e-03
 -8.102396452491500423e-03
 -8.079934212293774995e-03
 -8.058935888737659564e-03
 -8.039474444729752603e-03
 -8.021580937192308511e-03
 -8.005249555792215074e-03
 -7.990443688511735323e-03
 -7.977102371786923968e-03
 -7.965146604241349002e-03
 -7.954485148705128794e-03
 -7.945019590287498781e-03
 -8.525387176986278653e-03
 -8.515941290604862185e-03
 -8.505302073430583837e-03
 -8.493371330242676515e-03
 -8.480058024443409490e-03
 -8.465283322118185086e-03
 -8.448986377839379919e-03
 -8.431130630989902910e-03
 -8.411710238726053876e-03
 -8.390756126795649583e-03
 -8.368341018331025560e-03
 -8.344582737004923798e-03
 -8.319645108329687747e-03
 -8.293735925993049596e-03
 -8.267101713902023225e-03
 -8.240019375098205437e-03
 -8.212785222847782118e-03
 -8.185702262065436621e-03
 -8.159066853298839114e-03
 -8.133155987391591651e-03
 -8.108216304536149457e-03
 -8.084455728455066173e-03
 -8.062038213788954091e-03
 -8.041081700286487055e-03
 -8.021659005857495472e-03
 -8.003801125818821999e-03
 -7.987502261571865353e-03
 -7.972725874109121841e-03
 -7.959411121309906134e-03
 -7.947479159114600317e-03
 -7.936838932005703395e-03
 -7.927392221025036934e-03
 -8.505752319135072639e-03
 -8.496325392371434707e-03
 -8.485707530255853434e-03
 -8.473800734699837509e-03
 -8.460514151879960573e-03
 -8.445769106131316081e-03
 -8.429504874160690872e-03
 -8.411684968690998077e-03
 -8.392303558520206042e-03
 -8.371391507184253525e-03
 -8.349021391639678893e-03
 -8.325310798814369515e-03
 -8.300423225091634050e-03
 -8.274566046777315220e-03
 -8.247985292672878332e-03
 -8.220957309802831917e-03
 -8.193777816551686688e-03
 -8.166749209641414528e-03
 -8.140167254891722548e-03
 -8.114308387411481999e-03
 -8.089418752667602852e-03
 -8.065705857421091862e-03
 -8.043333327613727546e-03
 -8.022418866624123068e-03
 -8.003035146510038833e-03
 -7.985213100605631151e-03
 -7.968946942108003778e-03
 -7.954200205434046322e-03
 -7.940912170604011444e-03
 -7.929004151795092034e-03
 -7.918385276192868930e-03
 -7.908957521901882268e-03
 -8.485306337031371313e-03
 -8.475898430822477458e-03
 -8.465301992378783044e-03
 -8.453419221387870053e-03
 -8.440159447370440202e-03
 -8.425444153433978012e-03
 -8.409212738793036407e-03
 -8.391428789763817966e-03
 -8.372086486823058366e-03
 -8.351216631104635413e-03
 -8.328891652940066323e-03
 -8.305228901761049082e-03
 -8.280391543797978662e-03
 -8.254586536650112757e-03
 -8.228059412445197160e-03
 -8.201085960421222038e-03
 -8.173961302178666191e-03
 -8.146987224292865162e-03
 -8.120458895933376636e-03
 -8.094652194671378767e-03
 -8.069812769637441444e-03
 -8.046147709255827701e-03
 -8.023820309686213390e-03
 -8.002948037155240002e-03
 -7.983603417373495714e-03
 -7.965817321476218946e-03
 -7.949583974484484075e-03
 -7.934866984466902584e-03
 -7.921605753981271481e-03
 -7.909721755945096217e-03
 -7.899124300840665303e-03
 -7.889715564485259153e-03
 -8.464052282786590706e-03
 -8.454663412169752604e-03
 -8.444088414318748348e-03
 -8.432229686850293074e-03
 -8.418996742770067446e-03
 -8.404311224075568243e-03
 -8.388112652598452360e-03
 -8.370364688294794353e-03
 -8.351061523345882157e-03
 -8.330233896441984268e-03
 -8.307954091186401518e-03
 -8.284339219353828443e-03
 -8.259552116775361816e-03
 -8.233799322041586086e-03
 -8.207325870234523021e-03
 -8.180406992382116896e-03
 -8.153337212839627951e-03
 -8.126417707553111949e-03
 -8.099943048562843056e-03
 -8.074188555444289025e-03
 -8.049399380566838944e-03
 -8.025782193669511386e-03
 -8.003499960833763971e-03
 -7.982669910917290779e-03
 -7.963364423147469007e-03
 -7.945614306395870630e-03
 -7.929413797500929617e-03
 -7.914726578240429897e-03
 -7.901492173803432995e-03
 -7.889632215970027174e-03
 -7.879056198679528292e-03
 -7.869666495610912541e-03
 -8.441993148811383421e-03
 -8.432623285056266987e-03
 -8.422069695425618910e-03
 -8.410234975150830683e-03
 -8.397028820455940124e-03
 -8.382373031975436442e-03
 -8.366207253977334460e-03
 -8.348495219949937651e-03
 -8.329231133768509598e-03
 -8.308445671778838526e-03
 -8.286210971100334277e-03
 -8.262643906225063811e-03
 -8.237906983111548467e-03
 -8.212206321990839913e-03
 -8.185786461680265649e-03
 -8.158922075853797945e-03
 -8.131907092533304654e-03
 -8.105042077958184848e-03
 -8.078621007932553291e-03
 -8.052918644857751454e-03
 -8.028179645070689444e-03
 -8.004610260220411735e-03
 -7.982373126783987027e-03
 -7.961585236579138414e-03
 -7.942318822547972737e-03
 -7.924604631372872410e-03
 -7.908436911682963089e-03
 -7.893779418842299458e-03
 -7.880571800488787512e-03
 -7.868735847031509134e-03
 -7.858181235585633140e-03
 -7.848810537404897827e-03
 -8.419131867805849587e-03
 -8.409780940550356729e-03
 -8.399248679870192913e-03
 -8.387437877880071779e-03
 -8.374258413332176521e-03
 -8.359632244917919799e-03
 -8.343499138882154789e-03
 -8.325822901977114610e-03
 -8.306597749734427952e-03
 -8.285854296400550420e-03
 -8.263664533164474801e-03
 -8.240145098138853749e-03
 -8.215458168650692505e-03
 -8.189809448150857721e-03
 -8.163442981046127936e-03
 -8.136632885742034818e-03
 -8.109672496144604628e-03
 -8.082861771044979812e-03
 -8.056494092206028385e-03
 -8.030843666902163017e-03
 -8.006154657246631820e-03
 -7.982632898317394352e-03
 -7.960440698173976148e-03
 -7.939694812447687863e-03
 -7.920467328306538685e-03
 -7.902788930461378952e-03
 -7.886653879272178050e-03
 -7.872026003417549947e-03
 -7.858845072518997471e-03
 -7.847033035035371959e-03
 -7.836499750587635690e-03
 -7.827147987275323571e-03
 -8.395471312752663881e-03
 -8.386139212139457830e-03
 -8.375628156652359033e-03
 -8.363841134142359010e-03
 -8.350688204832966768e-03
 -8.336091484550426159e-03
 -8.319990860806585065e-03
 -8.302350213199758203e-03
 -8.283163768851410994e-03
 -8.262462080283817720e-03
 -8.240316993619383953e-03
 -8.216844911980542357e-03
 -8.192207685997387329e-03
 -8.166610604780886323e-03
 -8.140297221220033075e-03
 -8.113541101692966703e-03
 -8.086634989445505226e-03
 -8.059878239348818030e-03
 -8.033563642559578971e-03
 -8.007964854425963369e-03
 -7.983325545681107388e-03
 -7.959851137217411471e-03
 -7.937703610548496255e-03
 -7.916999486460263649e-03
 -7.897810707171307523e-03
 -7.880167895758911911e-03
 -7.864065324237787605e-03
 -7.849466894161070962e-03
 -7.836312496434023889e-03
 -7.824524236645187189e-03
 -7.814012155865324508e-03
 -7.804679217909601084e-03
 -8.371014296928611445e-03
 -8.361700875730852106e-03
 -8.351210859586590679e-03
 -8.339447430562096225e-03
 -8.326320828914275662e-03
 -8.311753326377980047e-03
 -8.295684930785536537e-03
 -8.278079594012175205e-03
 -8.258931554686998328e-03
 -8.238271304101485448e-03
 -8.216170544463313047e-03
 -8.192745445760721279e-03
 -8.168157534509253373e-03
 -8.142611688745748921e-03
 -8.116350973709423461e-03
 -8.089648408085028941e-03
 -8.062796149092865336e-03
 -8.036092952402842243e-03
 -8.009831023178091633e-03
 -7.984283469136160480e-03
 -7.959693473445219117e-03
 -7.936266046019078285e-03
 -7.914162844351828666e-03
 -7.893500156186814692e-03
 -7.874349779904124894e-03
 -7.856742277408618538e-03
 -7.840671932263742344e-03
 -7.826102718324356305e-03
 -7.812974646828592731e-03
 -7.801209979270393863e-03
 -7.790718936750555892e-03
 -7.781404677280135199e-03
 -8.345763573887648307e-03
 -8.336468649642948467e-03
 -8.325999467314600805e-03
 -8.314259401270174266e-03
 -8.301158870046010385e-03
 -8.286620299762334496e-03
 -8.270583817390625425e-03
 -8.253013446380878457e-03
 -8.233903436765790951e-03
 -8.213284219215234022e-03
 -8.191227353443290837e-03
 -8.167848778607390489e-03
 -8.143309700294119186e-03
 -8.117814589510765830e-03
 -8.091606028637256948e-03
 -8.064956494030420600e-03
 -8.038157562620511579e-03
 -8.011507396732472572e-03
 -7.985297621250371167e-03
 -7.959800801591136732e-03
 -7.935259638090479822e-03
 -7.911878733668560593e-03
 -7.889819424931662079e-03
 -7.869197768826993039e-03
 -7.850085421275779587e-03
 -7.832512883586953412e-03
 -7.816474450749372194e-03
 -7.801934168210463739e-03
 -7.788832166354692915e-03
 -7.777090861062434420e-03
 -7.766620651720941224e-03
 -7.757324888636345402e-03
 -8.319721837455282612e-03
 -8.310445194604231672e-03
 -8.299996603279242990e-03
 -8.288279627902983906e-03
 -8.275204863216112719e-03
 -8.260694887912579248e-03
 -8.244689946721358784e-03
 -8.227154133834960886e-03
 -8.208081710561912145e-03
 -8.187503047668846790e-03
 -8.165489564054740149e-03
 -8.142156970759669918e-03
 -8.117666156205330732e-03
 -8.092221189141567128e-03
 -8.066064174734833767e-03
 -8.039467053363428053e-03
 -8.012720828437097653e-03
 -7.986123075852722894e-03
 -7.959964846967072793e-03
 -7.934518171194516675e-03
 -7.910025271642126543e-03
 -7.886690348946675394e-03
 -7.864674422529334755e-03
 -7.844093321201964231e-03
 -7.825018560061352754e-03
 -7.807480580507973611e-03
 -7.791473688808959672e-03
 -7.776962001158484010e-03
 -7.763885765706952588e-03
 -7.752167550918320424e-03
 -7.741717932393307917e-03
 -7.732440450499427839e-03
 -8.292891721733660834e-03
 -8.283633113746897633e-03
 -8.273204835733509455e-03
 -8.261510639601891970e-03
 -8.248461293916256251e-03
 -8.233979527883444199e-03
 -8.218005702403892443e-03
 -8.200503981461260833e-03
 -8.181468637491494389e-03
 -8.160929982184051898e-03
 -8.138959295533713251e-03
 -8.115672063562562322e-03
 -8.091228861833631159e-03
 -8.065833362286150415e-03
 -8.039727199341350702e-03
 -8.013181784639354654e-03
 -7.986487555818870543e-03
 -7.959941510257100353e-03
 -7.933834133507887756e-03
 -7.908436926194537323e-03
 -7.883991640596658967e-03
 -7.860702080462220881e-03
 -7.838728952271781930e-03
 -7.818187859749321095e-03
 -7.799150179034227033e-03
 -7.781646292411775051e-03
 -7.765670517257568933e-03
 -7.751187039554035055e-03
 -7.738136223625156213e-03
 -7.726440788468196333e-03
 -7.716011483517687744e-03
 -7.706752036657194514e-03
 -8.265275801080466597e-03
 -8.256034952598799090e-03
 -8.245626677726570000e-03
 -8.233954912995371939e-03
 -8.220930598134076547e-03
 -8.206476610565550250e-03
 -8.190533425581817892e-03
 -8.173065275894194834e-03
 -8.154066444911695771e-03
 -8.133567186150368958e-03
 -8.111638642847460168e-03
 -8.088396079460886956e-03
 -8.063999763499137691e-03
 -8.038652976180111001e-03
 -8.012596888388191438e-03
 -7.986102391122811353e-03
 -7.959459364900023717e-03
 -7.932964237412340469e-03
 -7.906906937041617914e-03
 -7.881558443667809402e-03
 -7.857160045909425752e-03
 -7.833915156648134023e-03
 -7.811984174171134228e-03
 -7.791482480513102146e-03
 -7.772481314959447767e-03
 -7.755011001555045178e-03
 -7.739065868605812977e-03
 -7.724610170808257972e-03
 -7.711584386883571680e-03
 -7.699911384064400330e-03
 -7.689502082975641084e-03
 -7.680260396156598363e-03
 -8.236876590111887053e-03
 -8.227653199073911572e-03
 -8.217264587098762132e-03
 -8.205614872201210525e-03
 -8.192615162355499150e-03
 -8.178188480677082636e-03
 -8.162275414905812917e-03
 -8.144840265315674357e-03
 -8.125877326103378775e-03
 -8.105416793619767829e-03
 -8.083529676685522608e-03
 -8.060331021988336939e-03
 -8.035980794244737546e-03
 -8.010681890627785462e-03
 -7.984675026394631378e-03
 -7.958230580779488902e-03
 -7.931637886665388743e-03
 -7.905192811751154264e-03
 -7.879184736709472087e-03
 -7.853884129517502838e-03
 -7.829531822986950107e-03
 -7.806330845750926103e-03
 -7.784441293104569712e-03
 -7.763978329140941437e-03
 -7.745013058581022222e-03
 -7.727575748207839851e-03
 -7.711660737053533179e-03
 -7.697232347354059610e-03
 -7.684231170278817656e-03
 -7.672580218781210187e-03
 -7.662190581763698126e-03
 -7.652966353289378416e-03
 -8.207696543693639157e-03
 -8.198490283466341663e-03
 -8.188120966475993107e-03
 -8.176492888812855395e-03
 -8.163517323544665361e-03
 -8.149117436758933700e-03
 -8.133233926529995217e-03
 -8.115831159436617120e-03
 -8.096903440270713029e-03
 -8.076480909297753877e-03
 -8.054634443455933185e-03
 -8.031478875758455219e-03
 -8.007173873826569505e-03
 -7.981921957998580966e-03
 -7.955963396457708600e-03
 -7.929568066268870286e-03
 -7.903024762940830117e-03
 -7.876628804656605337e-03
 -7.850669034619180142e-03
 -7.825415418458471495e-03
 -7.801108341677893618e-03
 -7.777950455816745948e-03
 -7.756101558814903693e-03
 -7.735676600862421808e-03
 -7.716746554615465555e-03
 -7.699341630637421795e-03
 -7.683456178476477487e-03
 -7.669054586634939212e-03
 -7.656077556624709714e-03
 -7.644448244393478413e-03
 -7.634077903986171906e-03
 -7.624870807595123326e-03
 </DataArray>
 <DataArray Name="pos.y" type="Float32" NumberOfComponents="1" format="ascii">
 1.938032555754047506e-03
 1.934427523224706031e-03
 1.930367054372516145e-03
 1.925813672808836816e-03
 1.920732634250805386e-03
 1.915093851609041406e-03
 1.908874103165136664e-03
 1.902059435585720919e-03
 1.894647619093786173e-03
 1.886650456784138424e-03
 1.878095703870787158e-03
 1.869028328333857507e-03
 1.859510854869956273e-03
 1.849622588700076953e-03
 1.839457616431980618e-03
 1.829121618795075902e-03
 1.818727684283185904e-03
 1.808391455053724641e-03
 1.798226037211050855e-03
 1.788337144186640144e-03
 1.778818905899095908e-03
 1.769750675994999399e-03
 1.761195027260119847e-03
 1.753196970894572038e-03
 1.745784297400748350e-03
 1.738968835769083305e-03
 1.732748372687639531e-03
 1.727108962861345111e-03
 1.722027385790988888e-03
 1.717473550603169788e-03
 1.713412705963717267e-03
 1.709807366639231599e-03
 2.041912411628053151e-03
 2.038096514851212102e-03
 2.033798542640339636e-03
 2.028978826572496938e-03
 2.023600590135012870e-03
 2.017631986407401705e-03
 2.011048435394763734e-03
 2.003835167591067577e-03
 1.995989822754300983e-03
 1.987524894290849335e-03
 1.978469760762602715e-03
 1.968872020273039307e-03
 1.958797854544422606e-03
 1.948331207338102177e-03
 1.937571668399635247e-03
 1.926631099787787672e-03
 1.915629204664020613e-03
 1.904688389282156941e-03
 1.893928375566892273e-03
 1.883461060419582217e-03
 1.873386079732514966e-03
 1.863787428863853714e-03
 1.854731340774703899e-03
 1.846265459621291910e-03
 1.838419201566794062e-03
 1.831205087612817204e-03
 1.824620775063774984e-03
 1.818651502981095047e-03
 1.813272692671787220e-03
 1.808452493185161870e-03
 1.804154120496573093e-03
 1.800337896760292270e-03
 2.145754141978908382e-03
 2.141725232227524242e-03
 2.137187336480187057e-03
 2.132098571945200208e-03
 2.126420109173166560e-03
 2.120118323479466566e-03
 2.113167262751925249e-03
 2.105551332994632513e-03
 2.097268042167078211e-03
 2.088330581018583727e-03
 2.078769967994136079e-03
 2.068636458114492954e-03
 2.057999927384494745e-03
 2.046949005362595948e-03
 2.035588841002509454e-03
 2.024037540673124559e-03
 2.012421489604576414e-03
 2.000869927072227317e-03
 1.989509258242433062e-03
 1.978457626502081422e-03
 1.967820229834157681e-03
 1.957685752619367243e-03
 1.948124125303018475e-03
 1.939185651838600194e-03
 1.930901390625614162e-03
 1.923284561735428720e-03
 1.916332691774275858e-03
 1.910030195852561443e-03
 1.904351123243668616e-03
 1.899261844983329145e-03
 1.894723523641646387e-03
 1.890694266416332626e-03
 2.249563203419378560e-03
 2.245319072519615707e-03
 2.240538766102062682e-03
 2.235178164052774828e-03
 2.229196362703435991e-03
 2.222557941177541723e-03
 2.215235561022291851e-03
 2.207212795201995460e-03
 2.198487018512038961e-03
 2.189072126267510576e-03
 2.179000793792603211e-03
 2.168325960561284620e-03
 2.157121235149867585e-03
 2.145479981482040655e-03
 2.133512965340552455e-03
 2.121344602130120771e-03
 2.109108028414905141e-03
 2.096939387326227869e-03
 2.084971836554789116e-03
 2.073329830733068330e-03
 2.062124187601208688e-03
 2.051448329180034780e-03
 2.041375921738558096e-03
 2.031959956608488452e-03
 2.023233151457853353e-03
 2.015209432679799118e-03
 2.007886194832613543e-03
 2.001247020535789484e-03
 1.995264572806758688e-03
 1.989903426236666519e-03
 1.985122668701396094e-03
 1.980878169479171301e-03
 2.353344647921383915e-03
 2.348883031017022244e-03
 2.343857762950387735e-03
 2.338222462742651098e-03
 2.331934130678412018e-03
 2.324955530789226451e-03
 2.317257923688535899e-03
 2.308824040538964666e-03
 2.299651121564568086e-03
 2.289753774060204663e-03
 2.279166347660891833e-03
 2.267944494538515644e-03
 2.256165595114658154e-03
 2.243927797493393966e-03
 2.231347543390957075e-03
 2.218555623634582002e-03
 2.205691997167894339e-03
 2.192899783629726537e-03
 2.180318964296441408e-03
 2.168080371466488392e-03
 2.156300501782994379e-03
 2.145077564768588241e-03
 2.134489001837766315e-03
 2.124590519988224339e-03
 2.115416513622500605e-03
 2.106981622894402249e-03
 2.099283108926496694e-03
 2.092303713089234147e-03
 2.086014697556799833e-03
 2.080378821569707146e-03
 2.075353076476720189e-03
 2.070891070084878490e-03
 2.457103122827100031e-03
 2.452421701141518744e-03
 2.447148859714702324e-03
 2.441235932595189374e-03